
                                 *****************
                                 * O   R   C   A *
                                 *****************

                                            #,                                       
                                            ###                                      
                                            ####                                     
                                            #####                                    
                                            ######                                   
                                           ########,                                 
                                     ,,################,,,,,                         
                               ,,#################################,,                 
                          ,,##########################################,,             
                       ,#########################################, ''#####,          
                    ,#############################################,,   '####,        
                  ,##################################################,,,,####,       
                ,###########''''           ''''###############################       
              ,#####''   ,,,,##########,,,,          '''####'''          '####       
            ,##' ,,,,###########################,,,                        '##       
           ' ,,###''''                  '''############,,,                           
         ,,##''                                '''############,,,,        ,,,,,,###''
      ,#''                                            '''#######################'''  
     '                                                          ''''####''''         
             ,#######,   #######,   ,#######,      ##                                
            ,#'     '#,  ##    ##  ,#'     '#,    #''#        ,####,    ,#,          
            ##       ##  ##   ,#'  ##            #'  '#       #'       ,# #          
            ##       ##  #######   ##           ,######,      #####,      #          
            '#,     ,#'  ##    ##  '#,     ,#' ,#      #,     #,   #      #          
             '#######'   ##     ##  '#######'  #'      '#     '####' #    #          



                #########################################################
                #                        -***-                          #
                #          Department of theory and spectroscopy        #
                #                                                       #
                #                      Frank Neese                      #
                #                                                       #
                #     Directorship, Architecture, Infrastructure        #
                #                    SHARK, DRIVERS                     #
                #        Core code/Algorithms in most modules           #
                #                                                       #
                #        Max Planck Institute fuer Kohlenforschung      #
                #                Kaiser Wilhelm Platz 1                 #
                #                 D-45470 Muelheim/Ruhr                 #
                #                      Germany                          #
                #                                                       #
                #                  All rights reserved                  #
                #                        -***-                          #
                #########################################################


                         Program Version 6.1.1  -  RELEASE   -
                                (GIT: $487d211c$)
                          ($2025-11-21 10:33:24 +0100$)
                                                                         
                                  - NO-DMRG VERSION -                    
                                                                         


 With contributions from (in alphabetic order):
[Max-Planck-Institut fuer Kohlenforschung]                               
  Daniel Aravena         : Magnetic Suceptibility                        
  Michael Atanasov       : Ab Initio Ligand Field Theory (pilot matlab implementation)
  Alexander A. Auer      : GIAO ZORA, VPT2 properties, NMR spectrum      
  Ute Becker             : All parallelization in ORCA, NUMFREQ, NUMCALC 
  Giovanni Bistoni       : ED, misc. LED, open-shell LED, HFLD           
  Dmytro Bykov           : pre 5.0 version of the SCF Hessian            
  Marcos Casanova-Páez   : Triplet and SCS-CIS(D). UHF-(DLPNO)-IP/EA/STEOM-CCSD. UHF-CVS-IP/STEOM-CCSD   
  Vijay G. Chilkuri      : MRCI spin determinant printing, contributions to CSF-ICE 
  Pauline Colinet        : FMM embedding                                 
  Dipayan Datta          : RHF DLPNO-CCSD density                        
  Achintya Kumar Dutta   : EOM-CC, STEOM-CC                              
  Nicolas Foglia         : Exact transition moments, OPA infrastructure, MCD improvements    
  Dmitry Ganyushin       : Spin-Orbit,Spin-Spin,Magnetic field MRCI      
  Miquel Garcia-Rates    : C-PCM and meta-GGA Hessian, CCSD/C-PCM, Gaussian charge scheme 
  Tiago L. C. Gouveia    : GS-ROHF, GS-ROCIS                             
  Yang Guo               : DLPNO-NEVPT2, F12-NEVPT2, CIM, IAO-localization        
  Andreas Hansen         : Spin unrestricted coupled pair/coupled cluster methods 
  Ingolf Harden          : AUTO-CI MPn and infrastructure                
  Benjamin Helmich-Paris : MC-RPA, TRAH-(SCF,CASSCF), AVAS, COSX integrals, SCF dyn. polar., MC-PDFT, srDFT 
  Lee Huntington         : MR-EOM, pCC                                   
  Robert Izsak           : Overlap fitted RIJCOSX, COSX-SCS-MP3, EOM     
  Riya Kayal             : Wick's Theorem for AUTO-CI, AUTO-CI UHF-CCSDT 
  Emily Kempfer          : AUTO-CI RHF CISDT and CCSDT, approximate NEVPT4
  Christian Kollmar      : KDIIS, OOCD, Brueckner-CCSD(T), CCSD density, CASPT2, CASPT2-K, improved NEVPT2 
  Axel Koslowski         : Symmetry handling                             
  Simone Kossmann        : meta-GGA functionals, TD-DFT gradient, OOMP2, (MP2 Hessian; deprecated post 5.0) 
  Lucas Lang             : DCDCAS, Hyperfine gauge corrections, ICE-SOC+SSC
  Marvin Lechner         : AUTO-CI (C++ implementation), FIC-MRCC        
  Spencer Leger          : CASSCF response                               
  Dagmar Lenk            : GEPOL surface, SMD, ORCA-2-JSON               
  Dimitrios Liakos       : Extrapolation schemes; Compound Job, Property file
  Dimitrios Manganas     : Further ROCIS development; embedding schemes. LFT, Crystal Embedding 
  Dimitrios Pantazis     : SARC Basis sets                               
  Anastasios Papadopoulos: AUTO-CI, single reference methods and gradients 
  Taras Petrenko         : pre 6.0 DFT Hessian and TD-DFT gradient,  ECA, NRVS 
  Petra Pikulova         : Analytic Raman intensities                    
  Peter Pinski           : DLPNO-MP2, DLPNO-MP2 Gradient                 
  Shashank Vittal Rao    : ES-AILFT, MagRelax                            
  Christoph Reimann      : Effective Core Potentials                     
  Marius Retegan         : Local ZFS, SOC                                
  Christoph Riplinger    : Optimizer, TS searches, QM/MM, DLPNO-CCSD(T), (RO)-DLPNO pert. Triples 
  Michael Roemelt        : Original ROCIS implementation, recursive CI coupling coefficients
  Masaaki Saitow         : Open-shell DLPNO-CCSD energy and density      
  Barbara Sandhoefer     : DKH picture change effects                    
  Yorick L. A. Schmerwitz: GMF and freeze-and-release deltaSCF, NEB S-IDPP initial path                    
  Kantharuban Sivalingam : CASSCF convergence/infrastructure, NEVPT2, NEVPT3, NEVPT4(SD), FIC-MRCI and CEPA variants
  Bernardo de Souza      : ESD, SOC TD-DFT                               
  Georgi L. Stoychev     : AutoAux, RI-MP2 NMR, DLPNO-MP2 response, X2C  
  Van Anh Tran           : RI-MP2 g-tensors                              
  Willem Van den Heuvel  : Paramagnetic NMR                              
  Zikuan Wang            : NOTCH, Electric field optimization            
  Frank Wennmohs         : Technical directorship and infrastructure     
  Hang Xu                : AUTO-CI-Response properties                   
                                                                         
[FACCTs GmbH]                                                            
  Markus Bursch, Nicolas Foglia, Miquel Garcia-Rates, Ingolf Harden, Hagen Neugebauer, Anastasios Papadopoulos, 
  Christoph Riplinger, Bernardo de Souza, Georgi L. Stoychev                                                    
                                                                 
  APM, various basis sets, CI-OPT, improved COSX, DLPNO-Multilevel,           
  DOCKER, DRACO, updates on ESD, Fragmentator, GOAT, IRC, LR-CPCM, L-BFGS, MBIS, meta-GGA TD-DFT gradient, ML-optimized integration grids, 
  MM, NACMEs, nearIR, NEB, NEB-TS, NL-DFT gradient (VV10), 2- and 3-layer-ONIOM, interface openCOSMO-RS, QMMM,   
  Crystal-QMMM, RESP, rigid body optimization, SF, symmetry and pop. for TD-DFT, various functionals, SOLVATOR                                   
                                                                         
[Other institutions]                                                     
  V. Asgeirsson          : NEB                                           
  Christoph Bannwarth    : sTDA-DFT, sTD-DFT, PBEh-3c, B97-3c, D3        
  Giovanni Bistoni       : ETS/NOCV, ADLD/ADEX, COVALED                  
  Martin Brehm           : Molecular dynamics                            
  Ronald Cardenas        : ETS/NOCV                                      
  Martina Colucci        : COVALED                                       
  Sebastian Ehlert       : rSCAN, r2SCAN, r2SCAN-3c, D4, dhf basis sets  
  Marvin Friede          : D4 for Fr, Ra, Ac-Lr                          
  Lars Goerigk           : TD-DFT with DH, B97 family of functionals     
  Stefan Grimme          : VdW corrections, initial TS optimization, DFT functionals, gCP, sTDA/sTD-DF 
  Waldemar Hujo          : DFT-NL                                        
  H. Jonsson             : NEB                                           
  Holger Kruse           : gCP                                           
  Marcel Mueller         : wB97X-3c, vDZP basis set                      
  Hagen Neugebauer       : wr2SCAN, Native XTB                           
  Gianluca Regni         : ADLD/ADEX                                     
  Tobias Risthaus        : pre 6.0 range-separated hybrid DFT and stability analysis
  Lukas Wittmann         : regularized MP2, r2SCAN double-hybrids, wr2SCAN        
                                                                         
We gratefully acknowledge several colleagues who have allowed us to      
interface, adapt or use parts of their codes:                            
  Ed Valeev, F. Pavosevic, A. Kumar             : LibInt (2-el integral package), F12 methods 
  Garnet Chan, S. Sharma, J. Yang, R. Olivares  : DMRG                   
  Ulf Ekstrom                                   : XCFun DFT Library      
  Mihaly Kallay                                 : mrcc  (arbitrary order and MRCC methods)
  Frank Weinhold                                : gennbo (NPA and NBO analysis)           
  Simon Mueller                                 : openCOSMO-RS                            
  Christopher J. Cramer and Donald G. Truhlar   : smd solvation model                     
  S Lehtola, MJT Oliveira, MAL Marques          : LibXC Library                           
  Liviu Ungur et al                             : ANISO software                          


 Your calculation uses the libint2 library for the computation of 2-el integrals
 For citations please refer to: http://libint.valeyev.net

 Your ORCA version has been built with support for libXC version: 7.0.0
 For citations please refer to: https://libxc.gitlab.io

 This ORCA versions uses:
   CBLAS   interface :  Fast vector & matrix operations
   LAPACKE interface :  Fast linear algebra routines
   SCALAPACK package :  Parallel linear algebra routines
   Shared memory     :  Shared parallel matrices
   BLAS/LAPACK       :  OpenBLAS 0.3.29  USE64BITINT DYNAMIC_ARCH NO_AFFINITY Zen SINGLE_THREADED
        Core in use  :  Zen
   Copyright (c) 2011-2014, The OpenBLAS Project


  ***********************************
  * Starting time: Thu Apr 23 20:44:17 2026
  * Host name:     vmi3233575
  * Process ID:    1471288
  * Working dir.:  /root/b12_scan/jobs/quasi_planar_nn2.00_perturb2
  ***********************************

NOTE: MaxCore=2500 MB was set to SCF,MP2,MDCI,CIPSI,MRCI,RASCI and CIS
      => If you want to overwrite this, your respective input block should be placed after the MaxCore statement
Your calculation utilizes the atom-pairwise dispersion correction
with the Becke-Johnson damping scheme (D3BJ)


================================================================================

----- Orbital basis set information -----
Your calculation utilizes the basis: def2-SVP
   F. Weigend and R. Ahlrichs, Phys. Chem. Chem. Phys. 7, 3297 (2005).

----- AuxJ basis set information -----
Your calculation utilizes the auxiliary basis: def2/J
   H-Rn: F. Weigend, Phys. Chem. Chem. Phys. 8, 1057 (2006).
   Fr-Lr: K. Eichkorn, F. Weigend, O. Treutler, R. Ahlrichs; Theor. Chem. Acc. 97, 119 (1997).

================================================================================
                                        WARNINGS
                       Please study these warnings very carefully!
================================================================================


WARNING: Geometry Optimization
  ===> : Switching off AutoStart
         For restart on a previous wavefunction, please use MOREAD

================================================================================
                                       INPUT FILE
================================================================================
NAME = quasi_planar_nn2.00_perturb2.inp
|  1> ! BP86 def2-SVP def2/J RI Opt TightSCF D3BJ
|  2> ! SlowConv
|  3> 
|  4> %pal nprocs 8 end
|  5> %maxcore 2500
|  6> 
|  7> %geom
|  8>   MaxIter 300
|  9> end
| 10> 
| 11> * xyz 0 1
| 12> B      1.18305855     -0.07841227      0.25295880
| 13> B     -0.94357038      1.26995611      0.48654321
| 14> B     -0.62616369     -0.88392901      0.35709993
| 15> B      3.57261881      0.51342780     -0.15155626
| 16> B      2.51532935      2.51199116     -0.03672907
| 17> B      0.25870431      3.74564024     -0.19605063
| 18> B     -2.12647372      2.84868490      0.02124697
| 19> B     -3.53247224      0.95523366     -0.04339719
| 20> B     -3.46139016     -1.47751561      0.20353265
| 21> B     -1.75596071     -3.60873040     -0.33069749
| 22> B      1.12224341     -3.51715383      0.05677859
| 23> B      3.14455714     -2.03726841     -0.06236705
| 24> *
| 25> 
| 26>                          ****END OF INPUT****
================================================================================

                       *****************************
                       * Geometry Optimization Run *
                       *****************************

Geometry optimization settings:
Update method            Update   .... BFGS
Choice of coordinates    CoordSys .... (2022) Redundant Internals
Initial Hessian          InHess   .... Almloef's Model
Max. no of cycles        MaxIter  .... 300

Convergence Tolerances:
Energy Change            TolE     ....  5.0000e-06 Eh
Max. Gradient            TolMAXG  ....  3.0000e-04 Eh/bohr
RMS Gradient             TolRMSG  ....  1.0000e-04 Eh/bohr
Max. Displacement        TolMAXD  ....  4.0000e-03 bohr
RMS Displacement         TolRMSD  ....  2.0000e-03 bohr
Strict Convergence                .... False

------------------------------------------------------------------------------
                        ORCA OPTIMIZATION COORDINATE SETUP
------------------------------------------------------------------------------

The optimization will be done in redundant internal coordinates (2022)
Making redundant internal coordinates   ...  (2022 redundants) done
Evaluating the initial hessian          ...  (Almloef) done
Evaluating the coordinates              ...  done
Calculating the B-matrix                .... done
Calculating the G-matrix                .... done
The number of degrees of freedom        ....  186

    -----------------------------------------------------------------
                    Redundant Internal Coordinates


    -----------------------------------------------------------------
         Definition                    Initial Value    Approx d2E/dq
    -----------------------------------------------------------------
      1. B(B   1,B   0)                  2.5289         0.012775   
      2. B(B   2,B   1)                  2.1810         0.045856   
      3. B(B   2,B   0)                  1.9832         0.094842   
      4. B(B   3,B   0)                  2.4948         0.014480   
      5. B(B   4,B   3)                  2.2639         0.033814   
      6. B(B   4,B   0)                  2.9273         0.010000   
      7. B(B   5,B   1)                  2.8356         0.010000   
      8. B(B   5,B   4)                  2.5767         0.010715   
      9. B(B   6,B   5)                  2.5575         0.011500   
     10. B(B   6,B   1)                  2.0269         0.080781   
     11. B(B   7,B   1)                  2.6613         0.010000   
     12. B(B   7,B   6)                  2.3593         0.023821   
     13. B(B   8,B   7)                  2.4463         0.017304   
     14. B(B   8,B   2)                  2.9008         0.010000   
     15. B(B   9,B   2)                  3.0289         0.010000   
     16. B(B   9,B   8)                  2.7814         0.010000   
     17. B(B  10,B   9)                  2.9056         0.010000   
     18. B(B  10,B   2)                  3.1751         0.010000   
     19. B(B  11,B   3)                  2.5879         0.010285   
     20. B(B  11,B  10)                  2.5088         0.013754   
     21. B(B  11,B   0)                  2.7900         0.010000   
     22. A(B   3,B   0,B  11)           58.3207         0.140426   
     23. A(B   1,B   0,B   2)           56.2577         0.186772   
     24. A(B   1,B   0,B   3)          133.9444         0.152896   
     25. A(B   1,B   0,B  11)          167.4256         0.138988   
     26. A(B   1,B   0,B   4)           85.4139         0.133595   
     27. A(B   2,B   0,B  11)          111.2317         0.167691   
     28. A(B   4,B   0,B  11)          106.8665         0.124892   
     29. A(B   2,B   0,B   4)          141.2446         0.159201   
     30. A(B   3,B   0,B   4)           48.5549         0.134877   
     31. A(B   2,B   0,B   3)          168.1483         0.189584   
     32. A(B   0,B   1,B   5)           94.9753         0.137130   
     33. A(B   5,B   1,B   6)           60.8000         0.162062   
     34. A(B   0,B   1,B   2)           49.1236         0.171943   
     35. A(B   2,B   1,B   5)          141.8355         0.153274   
     36. A(B   5,B   1,B   7)          117.8907         0.132113   
     37. A(B   0,B   1,B   7)          137.4448         0.144636   
     38. A(B   2,B   1,B   6)          147.1967         0.214911   
     39. A(B   2,B   1,B   7)           90.7430         0.163298   
     40. A(B   0,B   1,B   6)          152.2372         0.183285   
     41. A(B   6,B   1,B   7)           58.5774         0.173457   
     42. A(B   0,B   2,B   9)          133.9289         0.153515   
     43. A(B   8,B   2,B   9)           55.8963         0.119083   
     44. A(B   0,B   2,B   8)          166.4118         0.160767   
     45. A(B   1,B   2,B   9)          147.9539         0.143731   
     46. A(B   1,B   2,B  10)          154.7956         0.137466   
     47. A(B   8,B   2,B  10)          111.3159         0.115639   
     48. A(B   1,B   2,B   8)           93.6112         0.149882   
     49. A(B   0,B   2,B  10)           80.1846         0.146131   
     50. A(B   0,B   2,B   1)           74.6186         0.219568   
     51. A(B   9,B   2,B  10)           55.7945         0.112948   
     52. A(B   0,B   3,B   4)           75.7520         0.168644   
     53. A(B   4,B   3,B  11)          142.2887         0.162709   
     54. A(B   0,B   3,B  11)           66.5567         0.149835   
     55. A(B   0,B   4,B   5)           91.7881         0.131855   
     56. A(B   3,B   4,B   5)          145.9459         0.163396   
     57. A(B   0,B   4,B   3)           55.6931         0.144586   
     58. A(B   4,B   5,B   6)          130.0603         0.147282   
     59. A(B   1,B   5,B   4)           86.4706         0.135251   
     60. A(B   1,B   5,B   6)           43.7730         0.135997   
     61. A(B   1,B   6,B   7)           74.2748         0.197564   
     62. A(B   5,B   6,B   7)          146.6087         0.158834   
     63. A(B   1,B   6,B   5)           75.4271         0.181067   
     64. A(B   1,B   7,B   8)           93.9703         0.148591   
     65. A(B   6,B   7,B   8)          141.0810         0.165600   
     66. A(B   1,B   7,B   6)           47.1478         0.153062   
     67. A(B   2,B   8,B   7)           80.2265         0.137830   
     68. A(B   2,B   8,B   9)           64.3836         0.125957   
     69. A(B   7,B   8,B   9)          139.5029         0.142927   
     70. A(B   2,B   9,B  10)           64.6513         0.118962   
     71. A(B   2,B   9,B   8)           59.7200         0.122223   
     72. A(B   8,B   9,B  10)          123.8911         0.125808   
     73. A(B   2,B  10,B   9)           59.5542         0.115532   
     74. A(B   9,B  10,B  11)          144.1690         0.135171   
     75. A(B   2,B  10,B  11)           87.6598         0.125904   
     76. A(B   0,B  11,B  10)           80.9130         0.139830   
     77. A(B   3,B  11,B  10)          135.7557         0.149131   
     78. A(B   0,B  11,B   3)           55.1226         0.136594   
     79. D(B   2,B   1,B   0,B   4)    173.9327         0.010000   
     80. D(B   6,B   1,B   0,B   2)   -137.9265         0.010000   
     81. D(B   7,B   1,B   0,B   2)    -23.4583         0.010000   
     82. D(B   6,B   1,B   0,B   4)     36.0061         0.010000   
     83. D(B   6,B   1,B   0,B  11)   -131.7873         0.010000   
     84. D(B   2,B   1,B   0,B   3)    172.2232         0.010000   
     85. D(B   2,B   1,B   0,B  11)      6.1392         0.010000   
     86. D(B   6,B   1,B   0,B   3)     34.2967         0.010000   
     87. D(B   8,B   2,B   0,B  11)   -147.8956         0.010000   
     88. D(B   8,B   2,B   1,B   0)   -173.1026         0.010000   
     89. D(B   8,B   2,B   0,B   1)     30.6731         0.010000   
     90. D(B   8,B   2,B   0,B   3)   -121.0080         0.010000   
     91. D(B   8,B   2,B   1,B   5)   -149.3999         0.010000   
     92. D(B   1,B   2,B   0,B   4)     -9.6893         0.010000   
     93. D(B   8,B   2,B   0,B   4)     20.9838         0.010000   
     94. D(B   0,B   2,B   1,B   5)     23.7028         0.010000   
     95. D(B   0,B   2,B   1,B   7)    164.3806         0.010000   
     96. D(B   8,B   2,B   1,B   7)     -8.7220         0.010000   
     97. D(B   8,B   2,B   1,B   6)    -28.2827         0.010000   
     98. D(B  10,B   2,B   1,B   6)    143.3670         0.010000   
     99. D(B   1,B   2,B   0,B  11)   -178.5687         0.010000   
    100. D(B   1,B   2,B   0,B   3)   -151.6811         0.010000   
    101. D(B   0,B   2,B   1,B   6)    144.8199         0.010000   
    102. D(B  10,B   2,B   0,B   1)    179.3721         0.010000   
    103. D(B  11,B   3,B   0,B   4)   -178.7460         0.010000   
    104. D(B  11,B   3,B   0,B   2)    -29.6930         0.010000   
    105. D(B   4,B   3,B   0,B   1)      2.2734         0.010000   
    106. D(B   4,B   3,B   0,B   2)    149.0530         0.010000   
    107. D(B   4,B   3,B   0,B  11)    178.7460         0.010000   
    108. D(B  11,B   3,B   0,B   1)   -176.4726         0.010000   
    109. D(B   3,B   4,B   0,B   2)   -170.2869         0.010000   
    110. D(B   5,B   4,B   3,B  11)    -17.7151         0.010000   
    111. D(B   5,B   4,B   3,B   0)    -19.5961         0.010000   
    112. D(B   5,B   4,B   0,B   3)    169.1697         0.010000   
    113. D(B   0,B   4,B   3,B  11)      1.8810         0.010000   
    114. D(B   5,B   4,B   0,B   1)     -9.1883         0.010000   
    115. D(B   5,B   4,B   0,B   2)     -1.1171         0.010000   
    116. D(B   3,B   4,B   0,B  11)     -1.1151         0.010000   
    117. D(B   3,B   4,B   0,B   1)   -178.3581         0.010000   
    118. D(B   1,B   5,B   4,B   0)      8.1765         0.010000   
    119. D(B   1,B   5,B   4,B   3)     24.2682         0.010000   
    120. D(B   6,B   5,B   4,B   3)     19.9095         0.010000   
    121. D(B   4,B   5,B   1,B   0)     -9.5072         0.010000   
    122. D(B   4,B   5,B   1,B   2)    -27.2717         0.010000   
    123. D(B   6,B   5,B   4,B   0)      3.8178         0.010000   
    124. D(B   6,B   5,B   1,B   7)     13.7041         0.010000   
    125. D(B   6,B   5,B   1,B   0)    165.6695         0.010000   
    126. D(B   6,B   5,B   1,B   2)    147.9050         0.010000   
    127. D(B   4,B   5,B   1,B   6)   -175.1767         0.010000   
    128. D(B   7,B   6,B   5,B   1)    -25.4144         0.010000   
    129. D(B   7,B   6,B   5,B   4)    -19.1192         0.010000   
    130. D(B   1,B   6,B   5,B   4)      6.2952         0.010000   
    131. D(B   5,B   6,B   1,B   7)   -165.7960         0.010000   
    132. D(B   5,B   6,B   1,B   0)    -31.9623         0.010000   
    133. D(B   7,B   6,B   1,B   5)    165.7960         0.010000   
    134. D(B   7,B   6,B   1,B   0)    133.8337         0.010000   
    135. D(B   7,B   6,B   1,B   2)     23.0985         0.010000   
    136. D(B   5,B   6,B   1,B   2)   -142.6975         0.010000   
    137. D(B   8,B   7,B   1,B   2)     10.3632         0.010000   
    138. D(B   8,B   7,B   1,B   6)    178.0910         0.010000   
    139. D(B   6,B   7,B   1,B   5)    -14.0249         0.010000   
    140. D(B   6,B   7,B   1,B   0)   -150.2087         0.010000   
    141. D(B   6,B   7,B   1,B   2)   -167.7278         0.010000   
    142. D(B   8,B   7,B   6,B   5)     22.5308         0.010000   
    143. D(B   8,B   7,B   6,B   1)     -3.0323         0.010000   
    144. D(B   1,B   7,B   6,B   5)     25.5631         0.010000   
    145. D(B   8,B   7,B   1,B   0)     27.8823         0.010000   
    146. D(B   9,B   8,B   7,B   1)    -36.5744         0.010000   
    147. D(B   9,B   8,B   7,B   6)    -34.3465         0.010000   
    148. D(B   2,B   8,B   7,B   1)     -7.8877         0.010000   
    149. D(B   2,B   8,B   7,B   6)     -5.6598         0.010000   
    150. D(B   9,B   8,B   2,B   1)    169.4105         0.010000   
    151. D(B   9,B   8,B   2,B   0)    139.8827         0.010000   
    152. D(B   7,B   8,B   2,B   9)   -159.7749         0.010000   
    153. D(B   7,B   8,B   2,B  10)   -166.5580         0.010000   
    154. D(B   7,B   8,B   2,B   1)      9.6356         0.010000   
    155. D(B   7,B   8,B   2,B   0)    -19.8922         0.010000   
    156. D(B   2,B   9,B   8,B   7)     31.6426         0.010000   
    157. D(B  10,B   9,B   8,B   2)      8.3283         0.010000   
    158. D(B  10,B   9,B   8,B   7)     39.9708         0.010000   
    159. D(B  10,B   9,B   2,B   8)   -172.3544         0.010000   
    160. D(B  10,B   9,B   2,B   1)    167.4236         0.010000   
    161. D(B  10,B   9,B   2,B   0)     19.7796         0.010000   
    162. D(B   8,B   9,B   2,B  10)    172.3544         0.010000   
    163. D(B   8,B   9,B   2,B   1)    -20.2220         0.010000   
    164. D(B   8,B   9,B   2,B   0)   -167.8660         0.010000   
    165. D(B  11,B  10,B   9,B   2)    -26.4986         0.010000   
    166. D(B  11,B  10,B   9,B   8)    -34.4545         0.010000   
    167. D(B   9,B  10,B   2,B   1)   -164.2583         0.010000   
    168. D(B   9,B  10,B   2,B   0)   -165.6799         0.010000   
    169. D(B  11,B  10,B   2,B   9)    164.8464         0.010000   
    170. D(B  11,B  10,B   2,B   8)    171.6377         0.010000   
    171. D(B  11,B  10,B   2,B   1)      0.5881         0.010000   
    172. D(B   2,B  10,B   9,B   8)     -7.9558         0.010000   
    173. D(B  11,B  10,B   2,B   0)     -0.8335         0.010000   
    174. D(B   0,B  11,B  10,B   9)     23.2333         0.010000   
    175. D(B   3,B  11,B  10,B   9)     17.0556         0.010000   
    176. D(B   3,B  11,B  10,B   2)     -5.5865         0.010000   
    177. D(B  10,B  11,B   3,B   4)      5.4552         0.010000   
    178. D(B  10,B  11,B   3,B   0)      7.4424         0.010000   
    179. D(B   0,B  11,B   3,B   4)     -1.9872         0.010000   
    180. D(B  10,B  11,B   0,B   3)   -174.7487         0.010000   
    181. D(B  10,B  11,B   0,B   1)     -6.4893         0.010000   
    182. D(B  10,B  11,B   0,B   2)     -1.0147         0.010000   
    183. D(B   3,B  11,B   0,B   4)      0.9822         0.010000   
    184. D(B   0,B  11,B  10,B   2)      0.5912         0.010000   
    185. D(B   3,B  11,B   0,B   1)    168.2594         0.010000   
    186. D(B   3,B  11,B   0,B   2)    173.7341         0.010000   
    -----------------------------------------------------------------

Number of atoms                         .... 12
Number of degrees of freedom            .... 186


         *************************************************************
         *                GEOMETRY OPTIMIZATION CYCLE   1            *
         *************************************************************
---------------------------------
CARTESIAN COORDINATES (ANGSTROEM)
---------------------------------
  B      1.183059   -0.078412    0.252959
  B     -0.943570    1.269956    0.486543
  B     -0.626164   -0.883929    0.357100
  B      3.572619    0.513428   -0.151556
  B      2.515329    2.511991   -0.036729
  B      0.258704    3.745640   -0.196051
  B     -2.126474    2.848685    0.021247
  B     -3.532472    0.955234   -0.043397
  B     -3.461390   -1.477516    0.203533
  B     -1.755961   -3.608730   -0.330697
  B      1.122243   -3.517154    0.056779
  B      3.144557   -2.037268   -0.062367

----------------------------
CARTESIAN COORDINATES (A.U.)
----------------------------
  NO LB      ZA    FRAG     MASS         X           Y           Z
   0 B     5.0000    0    10.810    2.235657   -0.148178    0.478023
   1 B     5.0000    0    10.810   -1.783090    2.399869    0.919433
   2 B     5.0000    0    10.810   -1.183278   -1.670384    0.674821
   3 B     5.0000    0    10.810    6.751271    0.970238   -0.286400
   4 B     5.0000    0    10.810    4.753284    4.746975   -0.069408
   5 B     5.0000    0    10.810    0.488880    7.078234   -0.370482
   6 B     5.0000    0    10.810   -4.018453    5.383234    0.040151
   7 B     5.0000    0    10.810   -6.675405    1.805130   -0.082009
   8 B     5.0000    0    10.810   -6.541079   -2.792100    0.384621
   9 B     5.0000    0    10.810   -3.318285   -6.819512   -0.624928
  10 B     5.0000    0    10.810    2.120733   -6.646458    0.107296
  11 B     5.0000    0    10.810    5.942352   -3.849879   -0.117857

--------------------------------
INTERNAL COORDINATES (ANGSTROEM)
--------------------------------
 B      0   0   0     0.000000000000     0.00000000     0.00000000
 B      1   0   0     2.528875159175     0.00000000     0.00000000
 B      1   2   0     1.983176166428    56.25771853     0.00000000
 B      1   2   3     2.494775608827   133.94441214   172.22324756
 B      4   1   2     2.263912937753    75.75195035     2.27341233
 B      5   4   1     2.576747947165   145.94592632   340.40390968
 B      2   1   3     2.026856061766   152.23721879   222.07345778
 B      7   2   1     2.359272833718    74.27484558   133.83373861
 B      8   7   2     2.446282080764   141.08102169   356.96770207
 B      9   8   7     2.781360805887   139.50288367   325.65348202
 B     10   9   8     2.905612317074   123.89107336    39.97083372
 B     11  10   9     2.508786432203   144.16896542   325.54553520

---------------------------
INTERNAL COORDINATES (A.U.)
---------------------------
 B      0   0   0     0.000000000000     0.00000000     0.00000000
 B      1   0   0     4.778881477717     0.00000000     0.00000000
 B      1   2   0     3.747659829869    56.25771853     0.00000000
 B      1   2   3     4.714442666269   133.94441214   172.22324756
 B      4   1   2     4.278175443394    75.75195035     2.27341233
 B      5   4   1     4.869347936286   145.94592632   340.40390968
 B      2   1   3     3.830202869615   152.23721879   222.07345778
 B      7   2   1     4.458379530928    74.27484558   133.83373861
 B      8   7   2     4.622803178962   141.08102169   356.96770207
 B      9   8   7     5.256010202750   139.50288367   325.65348202
 B     10   9   8     5.490811530618   123.89107336    39.97083372
 B     11  10   9     4.740919285361   144.16896542   325.54553520

---------------------
BASIS SET INFORMATION
---------------------
There are 1 groups of distinct atoms

 Group   1 Type B   : 7s4p1d contracted to 3s2p1d pattern {511/31/1}

Atom   0B    basis set group =>   1
Atom   1B    basis set group =>   1
Atom   2B    basis set group =>   1
Atom   3B    basis set group =>   1
Atom   4B    basis set group =>   1
Atom   5B    basis set group =>   1
Atom   6B    basis set group =>   1
Atom   7B    basis set group =>   1
Atom   8B    basis set group =>   1
Atom   9B    basis set group =>   1
Atom  10B    basis set group =>   1
Atom  11B    basis set group =>   1
---------------------------------
AUXILIARY/J BASIS SET INFORMATION
---------------------------------
There are 1 groups of distinct atoms

 Group   1 Type B   : 12s5p4d2f1g contracted to 6s4p3d1f1g pattern {711111/2111/211/2/1}

Atom   0B    basis set group =>   1
Atom   1B    basis set group =>   1
Atom   2B    basis set group =>   1
Atom   3B    basis set group =>   1
Atom   4B    basis set group =>   1
Atom   5B    basis set group =>   1
Atom   6B    basis set group =>   1
Atom   7B    basis set group =>   1
Atom   8B    basis set group =>   1
Atom   9B    basis set group =>   1
Atom  10B    basis set group =>   1
Atom  11B    basis set group =>   1


           ************************************************************
           *        Program running with 8 parallel MPI-processes     *
           *              working on a common directory               *
           ************************************************************
------------------------------------------------------------------------------
                             ORCA STARTUP CALCULATIONS
                           -- RI-GTO INTEGRALS CHOSEN --
------------------------------------------------------------------------------
------------------------------------------------------------------------------
                   ___                                                        
                  /   \      - P O W E R E D   B Y -                         
                 /     \                                                     
                 |  |  |   _    _      __       _____    __    __             
                 |  |  |  | |  | |    /  \     |  _  \  |  |  /  |          
                  \  \/   | |  | |   /    \    | | | |  |  | /  /          
                 / \  \   | |__| |  /  /\  \   | |_| |  |  |/  /          
                |  |  |   |  __  | /  /__\  \  |    /   |      \           
                |  |  |   | |  | | |   __   |  |    \   |  |\   \          
                \     /   | |  | | |  |  |  |  | |\  \  |  | \   \       
                 \___/    |_|  |_| |__|  |__|  |_| \__\ |__|  \__/        
                                                                              
                      - O R C A' S   B I G   F R I E N D -                    
                                      &                                       
                       - I N T E G R A L  F E E D E R -                       
                                                                              
 v1 FN, 2020, v2 2021, v3 2022-2024                                           
------------------------------------------------------------------------------


----------------------
SHARK INTEGRAL PACKAGE
----------------------

Number of atoms                             ...     12
Number of basis functions                   ...    168
Number of shells                            ...     72
Maximum angular momentum                    ...      2
Integral batch strategy                     ... SHARK/LIBINT Hybrid
RI-J (if used) integral strategy            ... SPLIT-RIJ (Revised 2003 algorithm where possible)
Printlevel                                  ...      1
Contraction scheme used                     ... SEGMENTED contraction
Prescreening option                         ... SCHWARTZ
   Thresh                                   ... 2.500e-11
   Tcut                                     ... 2.500e-12
   Tpresel                                  ... 2.500e-12 
Coulomb Range Separation                    ... NOT USED
Exchange Range Separation                   ... NOT USED
Multipole approximations                    ... NOT USED
Finite Nucleus Model                        ... NOT USED
CABS basis                                  ... NOT available
Auxiliary Coulomb fitting basis             ... AVAILABLE
   # of basis functions in Aux-J            ...    588
   # of shells in Aux-J                     ...    180
   Maximum angular momentum in Aux-J        ...      4
Auxiliary J/K fitting basis                 ... NOT available
Auxiliary Correlation fitting basis         ... NOT available
Auxiliary 'external' fitting basis          ... NOT available

Checking pre-screening integrals            ... done (  0.0 sec) Dimension = 72
   => SHARK Basis and OBASIS are compatible. Storing Pre-screening
Shell pair information
Shell pair cut-off parameter TPreSel        ...   2.5e-12
Total number of shell pairs                 ...      2628
Shell pairs after pre-screening             ...      2344
Total number of primitive shell pairs       ...     10596
Primitive shell pairs kept                  ...      6370
          la=0 lb=0:    569 shell pairs
          la=1 lb=0:    818 shell pairs
          la=1 lb=1:    291 shell pairs
          la=2 lb=0:    340 shell pairs
          la=2 lb=1:    266 shell pairs
          la=2 lb=2:     60 shell pairs

Checking whether 4 symmetric matrices of dimension 168 fit in memory
:Max Core in MB      =   2500.00
 MB in use           =      6.43
 MB left             =   2493.57
 MB needed           =      0.43
 Data fit in memory  = YES
Calculating RI/J V-Matrix + Cholesky decomp.... done (  0.0 sec)
Calculating Nuclear repulsion               ... done (  0.0 sec) ENN=    223.705597143593 Eh

Diagonalization of the overlap matrix:
Smallest eigenvalue                        ... 3.348e-03
Time for diagonalization                   ...    0.004 sec
Threshold for overlap eigenvalues          ... 1.000e-07
Number of eigenvalues below threshold      ... 0
Time for construction of square roots      ...    0.002 sec
Total time needed                          ...    0.008 sec

-------------------
DFT GRID GENERATION
-------------------

General Integration Accuracy     IntAcc      ... 4.388
Radial Grid Type                 RadialGrid  ... OptM3 with GC (2021)
Angular Grid (max. ang.)         AngularGrid ... 4 (Lebedev-302)
Angular grid pruning method      GridPruning ... 4 (adaptive)
Weight generation scheme         WeightScheme... mBecke (2022)
Basis function cutoff            BFCut       ... 1.0000e-11
Integration weight cutoff        WCut        ... 1.0000e-14
Partially contracted basis set               ... off
Rotationally invariant grid construction     ... off
Angular grids for H and He will be reduced by one unit

Total number of grid points                  ...    72787
Total number of batches                      ...     1143
Average number of points per batch           ...       63
Average number of grid points per atom       ...     6066
Grids setup in   1.0 sec
Initializing property integral containers    ... done (  0.0 sec)

SHARK setup successfully completed in   1.2 seconds

Maximum memory used throughout the entire STARTUP-calculation: 19.6 MB


           ************************************************************
           *        Program running with 8 parallel MPI-processes     *
           *              working on a common directory               *
           ************************************************************
-------------------------------------------------------------------------------
                                 ORCA GUESS
                   Start orbitals & Density for SCF / CASSCF
-------------------------------------------------------------------------------

------------
SCF SETTINGS
------------
Hamiltonian:
 Density Functional     Method          .... DFT(GTOs)
 Exchange Functional    Exchange        .... B88
   X-Alpha parameter    XAlpha          ....  0.666667
   Becke's b parameter  XBeta           ....  0.004200
 Correlation Functional Correlation     .... P86
 LDA part of GGA corr.  LDAOpt          .... PW91-LDA
 Gradients option       PostSCFGGA      .... off
   NL short-range parameter             ....  4.400000
 RI-approximation to the Coulomb term is turned on
   Number of AuxJ basis functions       .... 588


General Settings:
 Integral files         IntName         .... quasi_planar_nn2.00_perturb2
 Hartree-Fock type      HFTyp           .... RHF
 Total Charge           Charge          ....    0
 Multiplicity           Mult            ....    1
 Number of Electrons    NEL             ....   60
 Basis Dimension        Dim             ....  168
 Nuclear Repulsion      ENuc            ....    223.7055971436 Eh

Convergence Acceleration:
 AO-DIIS                CNVDIIS         .... on
   Start iteration      DIISMaxIt       ....     0
   Startup error        DIISStart       ....  0.200000
   # of expansion vecs  DIISMaxEq       ....     5
   Bias factor          DIISBfac        ....   1.050
   Max. coefficient     DIISMaxC        ....  10.000
 MO-DIIS                CNVKDIIS        .... off
 Trust-Rad. Augm. Hess. CNVTRAH         .... auto
   Auto Start mean grad. ratio tolernc. ....  1.125000
   Auto Start start iteration           ....    50
   Auto Start num. interpolation iter.  ....    10
   Max. Number of Micro iterations      ....    24
   Max. Number of Macro iterations      .... Maxiter - #DIIS iter
   Number of Davidson start vectors     ....     2
   Converg. threshold    (grad. norm)   ....   1.000e-05
   Grad. Scal. Fac. for Micro threshold ....   0.100
   Minimum threshold for Micro iter.    ....   1.000e-02
   NR start threshold (gradient norm)   ....   1.000e-04
   Initial trust radius                 ....   0.400
   Minimum AH scaling param. (alpha)    ....   1.000
   Maximum AH scaling param. (alpha)    .... 1000.000
   Quad. conv. algorithm                .... NR
   White noise on init. David. guess    .... on
   Maximum white noise                  ....   0.010
   Pseudo random numbers                .... off
   Inactive MOs                         .... canonical
   Orbital update algorithm             .... Taylor
   Preconditioner                       .... Diag
   Full preconditioner red. dimension   ....   250
 SOSCF                 CNVSOSCF           .... on
   Start iteration     SOSCFMaxIt         ....   150
   Startup grad/error  SOSCFStart         ....  0.001000
   Hessian update      SOSCFHessUp        .... L-BFGS
   Autom. constraints  SOSCFAutoConstrain .... off
 Level Shifting         CNVShift        .... on
   Level shift para.    LevelShift      ....    0.2500
   Turn off err/grad.   ShiftErr        ....    0.0000
 Zerner damping         CNVZerner       .... off
 Static damping         CNVDamp         .... on
   Fraction old density DampFac         ....    0.8500
   Max. Damping (<1)    DampMax         ....    0.9800
   Min. Damping (>=0)   DampMin         ....    0.0000
   Turn off err/grad.   DampErr         ....    0.0300

SCF Procedure:
 Maximum # iterations   MaxIter         ....   125
 SCF integral mode      SCFMode         .... Direct
   Integral package                     .... SHARK and LIBINT hybrid scheme
 Reset frequency        DirectResetFreq ....    20
 Integral Threshold     Thresh          ....  2.500e-11 Eh
 Primitive CutOff       TCut            ....  2.500e-12 Eh

Convergence Tolerance:
 Convergence Check Mode ConvCheckMode   .... Total+1el-Energy
 Convergence forced     ConvForced      .... 0
 Energy Change          TolE            ....  1.000e-08 Eh
 1-El. energy change                    ....  1.000e-05 Eh
 Orbital Gradient       TolG            ....  1.000e-05
 Orbital Rotation angle TolX            ....  1.000e-05
 DIIS Error             TolErr          ....  5.000e-07

------------------------------
INITIAL GUESS: MODEL POTENTIAL
------------------------------
Loading Hartree-Fock densities                     ... done
Calculating cut-offs                               ... done
Initializing the effective Hamiltonian             ... done
Setting up the integral package (SHARK)            ... done
Starting the Coulomb interaction                   ... done (   0.1 sec)
Making the grid                                    ... done (   0.3 sec)
Mapping shells                                     ... done
Starting the XC term evaluation                    ... done (   0.1 sec)
  promolecular density results
     # of electrons  =     60.000670151
     EX              =    -44.491747020
     EC              =     -1.748707246
     EX+EC           =    -46.240454265
Transforming the Hamiltonian                       ... done (   0.0 sec)
Diagonalizing the Hamiltonian                      ... done (   0.0 sec)
Back transforming the eigenvectors                 ... done (   0.0 sec)
Now organizing SCF variables                       ... done
                      ------------------
                      INITIAL GUESS DONE (   0.8 sec)
                      ------------------
             **** ENERGY FILE WAS UPDATED (quasi_planar_nn2.00_perturb2.en.tmp) ****
Finished Guess after   1.5 sec
Maximum memory used throughout the entire GUESS-calculation: 9.2 MB


           ************************************************************
           *        Program running with 8 parallel MPI-processes     *
           *              working on a common directory               *
           ************************************************************

-------------------------------------------------------------------------------------------
                                      ORCA LEAN-SCF
                              memory conserving SCF solver
-------------------------------------------------------------------------------------------

----------------------------------------D-I-I-S--------------------------------------------
Iteration    Energy (Eh)           Delta-E    RMSDP     MaxDP     DIISErr   Damp  Time(sec)
-------------------------------------------------------------------------------------------
               ***  Starting incremental Fock matrix formation  ***
    1    -296.0126714447386576     0.00e+00  9.21e-03  1.11e-01  9.38e-02  0.850   0.3
Warning: op=0 Small HOMO/LUMO gap (  -0.035) - skipping pre-diagonalization
         Will do a full diagonalization
    2    -296.2150144734780497    -2.02e-01  8.09e-03  6.16e-02  5.20e-02  0.850   0.6
                               ***Turning on AO-DIIS***
    3    -296.2118883002724488     3.13e-03  5.42e-03  3.43e-02  2.89e-02  0.850   0.5
    4    -296.1488955265605227     6.30e-02  2.60e-02  1.45e-01  6.27e-02  0.000   0.4
    5    -295.4135405284287117     7.35e-01  1.19e-03  9.40e-03  2.19e-01  0.850   0.3
    6    -295.4760597388292354    -6.25e-02  1.85e-03  1.37e-02  2.12e-01  0.850   0.3
    7    -295.5667817904550247    -9.07e-02  2.58e-03  1.72e-02  2.02e-01  0.850   0.3
    8    -295.6714744219965496    -1.05e-01  3.90e-03  2.56e-02  1.88e-01  0.850   0.5
    9    -295.7880487295102512    -1.17e-01  9.48e-03  9.46e-02  1.68e-01  0.850   0.4
   10    -296.0604642578067569    -2.72e-01  6.41e-03  4.65e-02  9.72e-02  0.850   0.7
   11    -296.1770127846996274    -1.17e-01  4.37e-03  2.20e-02  5.14e-02  0.850   1.2
   12    -296.2251443564451847    -4.81e-02  3.09e-03  1.28e-02  2.32e-02  0.850   0.4
   13    -296.2468363725250811    -2.17e-02  1.54e-02  7.26e-02  1.60e-02  0.000   0.3
   14    -296.2255421207537438     2.13e-02  3.34e-03  1.75e-02  6.32e-02  0.000   0.4
   15    -296.2780940521482762    -5.26e-02  4.02e-04  3.14e-03  4.97e-02  0.850   0.3
   16    -296.2833957684371171    -5.30e-03  6.22e-04  3.82e-03  4.83e-02  0.850   0.3
   17    -296.2912713020475621    -7.88e-03  7.39e-04  3.38e-03  4.59e-02  0.850   0.5
   18    -296.3001178506870019    -8.85e-03  1.39e-03  1.11e-02  4.28e-02  0.850   0.6
   19    -296.3142186152932709    -1.41e-02  1.40e-03  8.44e-03  3.59e-02  0.850   1.0
   20    -296.3268082302954554    -1.26e-02  1.22e-03  5.16e-03  2.80e-02  0.850   1.0
               *** Restarting incremental Fock matrix formation ***
                             ****Resetting DIIS****
Warning: op=0 Small HOMO/LUMO gap (  -0.014) - skipping pre-diagonalization
         Will do a full diagonalization
   21    -296.3355928094862293    -8.78e-03  2.29e-02  1.56e-01  2.16e-02  0.000   1.0
   22    -295.9384646823326648     3.97e-01  7.46e-03  7.23e-02  1.66e-01  0.000   0.3
   23    -296.1743172955517593    -2.36e-01  6.32e-04  5.10e-03  1.05e-01  0.850   0.4
   24    -296.1909161271807989    -1.66e-02  9.25e-04  6.90e-03  9.99e-02  0.850   0.5
   25    -296.2135767386687348    -2.27e-02  1.05e-03  7.42e-03  9.22e-02  0.850   0.3
   26    -296.2368166577965667    -2.32e-02  2.78e-03  2.50e-02  8.39e-02  0.850   0.6
   27    -296.2779256320568493    -4.11e-02  2.49e-03  1.88e-02  6.02e-02  0.850   0.8
   28    -296.3107147580508354    -3.28e-02  1.98e-03  1.07e-02  4.41e-02  0.850   0.4
   29    -296.3291433495132878    -1.84e-02  1.53e-03  8.70e-03  3.07e-02  0.850   0.7
   30    -296.3390392896521917    -9.90e-03  1.16e-03  6.63e-03  1.94e-02  0.850   0.9
   31    -296.3442809230590456    -5.24e-03  5.68e-03  3.56e-02  1.14e-02  0.000   0.6
   32    -296.3480368199743680    -3.76e-03  1.44e-03  1.02e-02  2.06e-02  0.000   0.2
   33    -296.3528958400462443    -4.86e-03  8.46e-04  4.94e-03  1.14e-02  0.000   0.2
   34    -296.3550784996685934    -2.18e-03  5.89e-04  3.44e-03  8.62e-03  0.000   0.3
   35    -296.3559433203981825    -8.65e-04  5.05e-04  4.25e-03  4.35e-03  0.000   0.4
   36    -296.3563390726974376    -3.96e-04  4.61e-04  3.50e-03  3.88e-03  0.000   0.3
   37    -296.3565519511965931    -2.13e-04  4.12e-04  4.11e-03  1.67e-03  0.000   0.3
   38    -296.3566033221447924    -5.14e-05  2.80e-04  2.19e-03  1.18e-03  0.000   0.6
                              *** Initializing SOSCF ***
---------------------------------------S-O-S-C-F--------------------------------------
Iteration    Energy (Eh)           Delta-E    RMSDP     MaxDP     MaxGrad    Time(sec)
--------------------------------------------------------------------------------------
   39    -296.3566513719919158    -4.80e-05  1.84e-04  1.20e-03  5.27e-04     0.3
               *** Restarting incremental Fock matrix formation ***
   40    -296.3566663286467247    -1.50e-05  2.09e-04  1.47e-03  4.02e-04     0.3
   41    -296.3566669583484554    -6.30e-07  2.11e-04  9.20e-04  4.74e-04     0.4
   42    -296.3566817445348534    -1.48e-05  5.20e-04  2.29e-03  4.03e-04     0.3
   43    -296.3566784974760822     3.25e-06  1.86e-04  1.29e-03  5.22e-04     0.4
   44    -296.3567002665752170    -2.18e-05  2.85e-04  2.04e-03  2.70e-04     0.5
   45    -296.3566825649678549     1.77e-05  1.78e-04  1.19e-03  6.08e-04     0.4
   46    -296.3567073145260338    -2.47e-05  1.55e-04  1.20e-03  1.09e-04     0.3
   47    -296.3567056255218404     1.69e-06  9.53e-05  7.80e-04  2.05e-04     0.3
   48    -296.3567103842295865    -4.76e-06  9.51e-05  4.62e-04  6.40e-05     0.3
   49    -296.3567108952655644    -5.11e-07  1.43e-04  5.03e-04  1.08e-04     0.8
   50    -296.3567117269011533    -8.32e-07  2.91e-05  3.36e-04  4.79e-05     0.3
   51    -296.3567119606374263    -2.34e-07  2.99e-05  1.68e-04  2.57e-05     0.4
   52    -296.3567120601119314    -9.95e-08  1.84e-05  1.07e-04  2.74e-05     0.6
   53    -296.3567121116223007    -5.15e-08  2.05e-05  1.20e-04  1.53e-05     0.3
   54    -296.3567121455702136    -3.39e-08  9.64e-06  3.51e-05  1.05e-05     0.3
   55    -296.3567121612873052    -1.57e-08  9.83e-06  4.50e-05  5.52e-06     0.3
   56    -296.3567121653215963    -4.03e-09  4.52e-06  2.08e-05  4.64e-06     0.3
                 **** Energy Check signals convergence ****

               *****************************************************
               *                     SUCCESS                       *
               *           SCF CONVERGED AFTER  56 CYCLES          *
               *****************************************************

             **** ENERGY FILE WAS UPDATED (quasi_planar_nn2.00_perturb2.en.tmp) ****

----------------
TOTAL SCF ENERGY
----------------

Total Energy       :       -296.35671217002516 Eh           -8064.27612 eV

Components:
Nuclear Repulsion  :        223.70559714359285 Eh            6087.33877 eV
Electronic Energy  :       -520.06230931361802 Eh          -14151.61489 eV
One Electron Energy:       -835.79891349634931 Eh          -22743.24468 eV
Two Electron Energy:        315.73660418273124 Eh            8591.62979 eV

Virial components:
Potential Energy   :       -587.88401493195443 Eh          -15997.13733 eV
Kinetic Energy     :        291.52730276192921 Eh            7932.86121 eV
Virial Ratio       :          2.01656589061245

DFT components:
N(Alpha)           :       29.999995961658 electrons
N(Beta)            :       29.999995961658 electrons
N(Total)           :       59.999991923316 electrons
E(X)               :      -44.707577780810 Eh       
E(C)               :       -1.785383455926 Eh       
E(XC)              :      -46.492961236735 Eh       

---------------
SCF CONVERGENCE
---------------

  Last Energy change         ...    4.0343e-09  Tolerance :   1.0000e-08
  Last MAX-Density change    ...    2.0792e-05  Tolerance :   1.0000e-07
  Last RMS-Density change    ...    4.5214e-06  Tolerance :   5.0000e-09
  Last DIIS Error            ...    5.2741e-04  Tolerance :   5.0000e-07
  Last Orbital Gradient      ...    4.6437e-06  Tolerance :   1.0000e-05
  Last Orbital Rotation      ...    1.2426e-04  Tolerance :   1.0000e-05


----------------
ORBITAL ENERGIES
----------------

  NO   OCC          E(Eh)            E(eV) 
   0   2.0000      -6.675488      -181.6493 
   1   2.0000      -6.671462      -181.5397 
   2   2.0000      -6.662354      -181.2919 
   3   2.0000      -6.661457      -181.2675 
   4   2.0000      -6.660721      -181.2474 
   5   2.0000      -6.660495      -181.2413 
   6   2.0000      -6.651457      -180.9953 
   7   2.0000      -6.641547      -180.7257 
   8   2.0000      -6.631059      -180.4403 
   9   2.0000      -6.625772      -180.2964 
  10   2.0000      -6.624451      -180.2605 
  11   2.0000      -6.622162      -180.1982 
  12   2.0000      -0.474397       -12.9090 
  13   2.0000      -0.439756       -11.9664 
  14   2.0000      -0.420303       -11.4370 
  15   2.0000      -0.403035       -10.9671 
  16   2.0000      -0.392619       -10.6837 
  17   2.0000      -0.379882       -10.3371 
  18   2.0000      -0.347556        -9.4575 
  19   2.0000      -0.337248        -9.1770 
  20   2.0000      -0.305101        -8.3022 
  21   2.0000      -0.293254        -7.9799 
  22   2.0000      -0.274490        -7.4692 
  23   2.0000      -0.269113        -7.3229 
  24   2.0000      -0.227017        -6.1774 
  25   2.0000      -0.212650        -5.7865 
  26   2.0000      -0.211095        -5.7442 
  27   2.0000      -0.206517        -5.6196 
  28   2.0000      -0.197714        -5.3801 
  29   2.0000      -0.186131        -5.0649 
  30   0.0000      -0.183977        -5.0063 
  31   0.0000      -0.174824        -4.7572 
  32   0.0000      -0.163248        -4.4422 
  33   0.0000      -0.156744        -4.2652 
  34   0.0000      -0.155624        -4.2347 
  35   0.0000      -0.151482        -4.1220 
  36   0.0000      -0.149292        -4.0624 
  37   0.0000      -0.142334        -3.8731 
  38   0.0000      -0.133883        -3.6431 
  39   0.0000      -0.122836        -3.3425 
  40   0.0000      -0.120297        -3.2734 
*Only the first 10 virtual orbitals were printed.

                    ********************************
                    * MULLIKEN POPULATION ANALYSIS *
                    ********************************

-----------------------
MULLIKEN ATOMIC CHARGES
-----------------------
   0 B :   -0.176802
   1 B :   -0.173363
   2 B :   -0.118557
   3 B :    0.030119
   4 B :    0.045865
   5 B :    0.093188
   6 B :   -0.020621
   7 B :    0.027868
   8 B :    0.063448
   9 B :    0.110729
  10 B :    0.066710
  11 B :    0.051417
Sum of atomic charges:   -0.0000000

--------------------------------
MULLIKEN REDUCED ORBITAL CHARGES
--------------------------------
  0 B s       :     3.440632  s :     3.440632
      pz      :     0.414196  p :     1.724439
      px      :     0.695607
      py      :     0.614637
      dz2     :     0.001371  d :     0.011731
      dxz     :     0.001070
      dyz     :     0.000081
      dx2y2   :     0.004394
      dxy     :     0.004815

  1 B s       :     3.434639  s :     3.434639
      pz      :     0.478645  p :     1.724572
      px      :     0.566513
      py      :     0.679414
      dz2     :     0.001642  d :     0.014152
      dxz     :     0.000658
      dyz     :     0.000832
      dx2y2   :     0.005249
      dxy     :     0.005772

  2 B s       :     3.428171  s :     3.428171
      pz      :     0.346353  p :     1.675959
      px      :     0.714926
      py      :     0.614680
      dz2     :     0.001507  d :     0.014427
      dxz     :     0.000762
      dyz     :     0.001252
      dx2y2   :     0.006319
      dxy     :     0.004587

  3 B s       :     3.713482  s :     3.713482
      pz      :     0.192293  p :     1.245958
      px      :     0.488948
      py      :     0.564717
      dz2     :     0.001531  d :     0.010442
      dxz     :     0.000768
      dyz     :     0.000087
      dx2y2   :     0.004732
      dxy     :     0.003323

  4 B s       :     3.758900  s :     3.758900
      pz      :     0.189191  p :     1.187459
      px      :     0.483743
      py      :     0.514524
      dz2     :     0.001115  d :     0.007776
      dxz     :     0.000068
      dyz     :     0.000388
      dx2y2   :     0.002510
      dxy     :     0.003695

  5 B s       :     3.850180  s :     3.850180
      pz      :     0.112588  p :     1.049939
      px      :     0.532201
      py      :     0.405150
      dz2     :     0.001145  d :     0.006693
      dxz     :     0.000248
      dyz     :     0.000433
      dx2y2   :     0.001964
      dxy     :     0.002904

  6 B s       :     3.661825  s :     3.661825
      pz      :     0.255417  p :     1.342966
      px      :     0.534893
      py      :     0.552655
      dz2     :     0.001817  d :     0.015830
      dxz     :     0.000699
      dyz     :     0.001849
      dx2y2   :     0.004407
      dxy     :     0.007059

  7 B s       :     3.752813  s :     3.752813
      pz      :     0.267376  p :     1.210711
      px      :     0.337600
      py      :     0.605735
      dz2     :     0.001169  d :     0.008608
      dxz     :     0.000844
      dyz     :     0.000225
      dx2y2   :     0.003672
      dxy     :     0.002698

  8 B s       :     3.831423  s :     3.831423
      pz      :     0.126038  p :     1.099188
      px      :     0.354709
      py      :     0.618441
      dz2     :     0.000951  d :     0.005941
      dxz     :     0.000146
      dyz     :     0.000412
      dx2y2   :     0.002988
      dxy     :     0.001444

  9 B s       :     3.923913  s :     3.923913
      pz      :     0.075175  p :     0.961535
      px      :     0.482280
      py      :     0.404079
      dz2     :     0.000583  d :     0.003823
      dxz     :     0.000201
      dyz     :     0.000283
      dx2y2   :     0.001306
      dxy     :     0.001450

 10 B s       :     3.879442  s :     3.879442
      pz      :     0.149488  p :     1.049320
      px      :     0.544847
      py      :     0.354985
      dz2     :     0.000827  d :     0.004527
      dxz     :     0.000074
      dyz     :     0.000153
      dx2y2   :     0.001233
      dxy     :     0.002240

 11 B s       :     3.813049  s :     3.813049
      pz      :     0.167633  p :     1.129083
      px      :     0.477625
      py      :     0.483825
      dz2     :     0.001091  d :     0.006451
      dxz     :     0.000224
      dyz     :     0.000125
      dx2y2   :     0.002056
      dxy     :     0.002955



                     *******************************
                     * LOEWDIN POPULATION ANALYSIS *
                     *******************************

----------------------
LOEWDIN ATOMIC CHARGES
----------------------
   0 B :   -0.071543
   1 B :   -0.071287
   2 B :   -0.128738
   3 B :   -0.058349
   4 B :    0.063707
   5 B :    0.082175
   6 B :   -0.104300
   7 B :    0.059565
   8 B :    0.036035
   9 B :    0.078217
  10 B :    0.072717
  11 B :    0.041801

-------------------------------
LOEWDIN REDUCED ORBITAL CHARGES
-------------------------------
  0 B s       :     3.185601  s :     3.185601
      pz      :     0.412696  p :     1.861026
      px      :     0.792526
      py      :     0.655803
      dz2     :     0.003619  d :     0.024917
      dxz     :     0.001649
      dyz     :     0.000124
      dx2y2   :     0.009195
      dxy     :     0.010330

  1 B s       :     3.129830  s :     3.129830
      pz      :     0.477674  p :     1.910769
      px      :     0.629321
      py      :     0.803774
      dz2     :     0.003795  d :     0.030688
      dxz     :     0.001233
      dyz     :     0.001716
      dx2y2   :     0.010647
      dxy     :     0.013297

  2 B s       :     3.183652  s :     3.183652
      pz      :     0.354118  p :     1.911768
      px      :     0.830584
      py      :     0.727066
      dz2     :     0.004676  d :     0.033318
      dxz     :     0.001258
      dyz     :     0.001829
      dx2y2   :     0.015528
      dxy     :     0.010028

  3 B s       :     3.505118  s :     3.505118
      pz      :     0.198252  p :     1.531725
      px      :     0.627650
      py      :     0.705823
      dz2     :     0.003748  d :     0.021505
      dxz     :     0.001152
      dyz     :     0.000157
      dx2y2   :     0.009529
      dxy     :     0.006920

  4 B s       :     3.566702  s :     3.566702
      pz      :     0.189758  p :     1.353797
      px      :     0.556397
      py      :     0.607641
      dz2     :     0.002729  d :     0.015794
      dxz     :     0.000096
      dyz     :     0.000505
      dx2y2   :     0.004254
      dxy     :     0.008209

  5 B s       :     3.699360  s :     3.699360
      pz      :     0.115708  p :     1.207289
      px      :     0.634278
      py      :     0.457303
      dz2     :     0.002102  d :     0.011176
      dxz     :     0.000312
      dyz     :     0.000549
      dx2y2   :     0.003722
      dxy     :     0.004491

  6 B s       :     3.367168  s :     3.367168
      pz      :     0.274074  p :     1.701515
      px      :     0.688238
      py      :     0.739203
      dz2     :     0.004886  d :     0.035617
      dxz     :     0.001579
      dyz     :     0.003440
      dx2y2   :     0.007160
      dxy     :     0.018553

  7 B s       :     3.541526  s :     3.541526
      pz      :     0.271075  p :     1.383007
      px      :     0.392600
      py      :     0.719331
      dz2     :     0.002585  d :     0.015902
      dxz     :     0.001068
      dyz     :     0.000337
      dx2y2   :     0.007029
      dxy     :     0.004883

  8 B s       :     3.690166  s :     3.690166
      pz      :     0.130083  p :     1.263152
      px      :     0.409409
      py      :     0.723661
      dz2     :     0.001912  d :     0.010647
      dxz     :     0.000183
      dyz     :     0.000601
      dx2y2   :     0.005795
      dxy     :     0.002156

  9 B s       :     3.836658  s :     3.836658
      pz      :     0.079412  p :     1.079411
      px      :     0.546115
      py      :     0.453884
      dz2     :     0.000915  d :     0.005715
      dxz     :     0.000270
      dyz     :     0.000355
      dx2y2   :     0.001863
      dxy     :     0.002312

 10 B s       :     3.755736  s :     3.755736
      pz      :     0.150512  p :     1.163774
      px      :     0.621328
      py      :     0.391934
      dz2     :     0.001548  d :     0.007774
      dxz     :     0.000103
      dyz     :     0.000173
      dx2y2   :     0.001822
      dxy     :     0.004127

 11 B s       :     3.650935  s :     3.650935
      pz      :     0.168146  p :     1.295799
      px      :     0.559339
      py      :     0.568315
      dz2     :     0.002119  d :     0.011464
      dxz     :     0.000280
      dyz     :     0.000170
      dx2y2   :     0.003312
      dxy     :     0.005584



                      *****************************
                      * MAYER POPULATION ANALYSIS *
                      *****************************

  NA   - Mulliken gross atomic population
  ZA   - Total nuclear charge
  QA   - Mulliken gross atomic charge
  VA   - Mayer's total valence
  BVA  - Mayer's bonded valence
  FA   - Mayer's free valence

  ATOM       NA         ZA         QA         VA         BVA        FA
  0 B      5.1768     5.0000    -0.1768     3.0736     3.0736    -0.0000
  1 B      5.1734     5.0000    -0.1734     3.0998     3.0998    -0.0000
  2 B      5.1186     5.0000    -0.1186     3.0613     3.0613    -0.0000
  3 B      4.9699     5.0000     0.0301     2.2336     2.2336     0.0000
  4 B      4.9541     5.0000     0.0459     2.0931     2.0931    -0.0000
  5 B      4.9068     5.0000     0.0932     1.8153     1.8153     0.0000
  6 B      5.0206     5.0000    -0.0206     2.4298     2.4298    -0.0000
  7 B      4.9721     5.0000     0.0279     2.1471     2.1471    -0.0000
  8 B      4.9366     5.0000     0.0634     1.8660     1.8660     0.0000
  9 B      4.8893     5.0000     0.1107     1.5626     1.5626    -0.0000
 10 B      4.9333     5.0000     0.0667     1.7431     1.7431    -0.0000
 11 B      4.9486     5.0000     0.0514     1.9673     1.9673     0.0000

  Mayer bond orders larger than 0.100000
B(  0-B ,  1-B ) :   0.4751 B(  0-B ,  2-B ) :   0.9453 B(  0-B ,  3-B ) :   0.5175 
B(  0-B ,  4-B ) :   0.3305 B(  0-B ,  7-B ) :   0.1040 B(  0-B , 10-B ) :   0.1459 
B(  0-B , 11-B ) :   0.2978 B(  1-B ,  2-B ) :   0.7357 B(  1-B ,  4-B ) :   0.1025 
B(  1-B ,  5-B ) :   0.3110 B(  1-B ,  6-B ) :   0.7436 B(  1-B ,  7-B ) :   0.3478 
B(  1-B , 11-B ) :   0.1071 B(  2-B ,  7-B ) :   0.1114 B(  2-B ,  8-B ) :   0.3398 
B(  2-B ,  9-B ) :   0.3040 B(  2-B , 10-B ) :   0.1991 B(  3-B ,  4-B ) :   0.6378 
B(  3-B , 10-B ) :   0.1153 B(  3-B , 11-B ) :   0.4844 B(  4-B ,  5-B ) :   0.4601 
B(  4-B , 11-B ) :   0.1227 B(  5-B ,  6-B ) :   0.4509 B(  5-B ,  7-B ) :   0.1193 
B(  6-B ,  7-B ) :   0.5589 B(  6-B ,  8-B ) :   0.1142 B(  6-B , 10-B ) :   0.1006 
B(  7-B ,  8-B ) :   0.5513 B(  7-B ,  9-B ) :   0.1010 B(  8-B ,  9-B ) :   0.3965 
B(  9-B , 10-B ) :   0.3354 B( 10-B , 11-B ) :   0.5039 

-------
TIMINGS
-------

Total SCF time: 0 days 0 hours 0 min 26 sec 

Total time                  ....      26.700 sec
Sum of individual times     ....      25.991 sec  ( 97.3%)

SCF preparation             ....       0.626 sec  (  2.3%)
Fock matrix formation       ....      18.564 sec  ( 69.5%)
  Startup                   ....       0.107 sec  (  0.6% of F)
  Split-RI-J                ....       5.927 sec  ( 31.9% of F)
  XC integration            ....      10.768 sec  ( 58.0% of F)
    XC Preparation          ....       0.000 sec  (  0.0% of XC)
    Basis function eval.    ....       2.161 sec  ( 20.1% of XC)
    Density eval.           ....       1.201 sec  ( 11.2% of XC)
    XC-Functional eval.     ....       0.361 sec  (  3.4% of XC)
    XC-Potential eval.      ....       1.248 sec  ( 11.6% of XC)
Diagonalization             ....       0.000 sec  (  0.0%)
Density matrix formation    ....       0.989 sec  (  3.7%)
Total Energy calculation    ....       0.803 sec  (  3.0%)
Population analysis         ....       0.046 sec  (  0.2%)
Orbital Transformation      ....       0.035 sec  (  0.1%)
Orbital Orthonormalization  ....       0.000 sec  (  0.0%)
DIIS solution               ....       4.109 sec  ( 15.4%)
SOSCF solution              ....       0.820 sec  (  3.1%)
Finished LeanSCF after  26.7 sec

Maximum memory used throughout the entire LEANSCF-calculation: 9.4 MB


-------------------------------------------------------------------------------
                          DFT DISPERSION CORRECTION                            
                                                                               
                              DFTD3 V3.1  Rev 1                                
                          USING Becke-Johnson damping                          
-------------------------------------------------------------------------------
The BP86 functional is recognized
Active option DFTDOPT                   ...         4   

molecular C6(AA) [au] = 13685.051930 


            DFT-D V3
 parameters
 s6 scaling factor         :     1.0000 
 a1 scaling factor         :     0.3946 
 s8 scaling factor         :     3.2822 
 a2 scaling factor         :     4.8516 
 ad hoc parameters k1-k3   :    16.0000     1.3333    -4.0000 

 Edisp/kcal,au: -34.868624514811  -0.055566684228 
 E6   /kcal   : -10.357347200 
 E8   /kcal   : -24.511277315 
 % E8         :  70.296083243 

-------------------------   ----------------
Dispersion correction           -0.055566684
-------------------------   ----------------


-------------------------   --------------------
FINAL SINGLE POINT ENERGY      -296.412278854253
-------------------------   --------------------



           ************************************************************
           *        Program running with 8 parallel MPI-processes     *
           *              working on a common directory               *
           ************************************************************
------------------------------------------------------------------------------
                         ORCA SCF GRADIENT CALCULATION
------------------------------------------------------------------------------

Nuc. rep. gradient        (SHARK) ... done (  0.0 sec)
HCore & Overlap gradient  (SHARK) ... done (  0.0 sec)
Split-RIJ-J gradient      (SHARK) ... done (  0.3 sec)
XC gradient                       ... done (  0.8 sec)
Dispersion correction             ... done (  0.1 sec)

-------------------
DISPERSION GRADIENT
-------------------

   1   B   :   -0.001431317   -0.000926561    0.000279042
   2   B   :   -0.001580703    0.001072510   -0.000380440
   3   B   :    0.001864465    0.001748038    0.000264159
   4   B   :    0.000078493    0.001110661    0.000039281
   5   B   :    0.001621005   -0.000211028   -0.000179833
   6   B   :   -0.000044701    0.001311331   -0.000136601
   7   B   :    0.000424684   -0.001426911    0.000461581
   8   B   :   -0.000615155    0.000730900   -0.000014326
   9   B   :   -0.001231837   -0.000395699   -0.000006857
  10   B   :   -0.000560169   -0.001128456   -0.000229315
  11   B   :    0.000552417   -0.001281638   -0.000023875
  12   B   :    0.000922817   -0.000603148   -0.000072816

Difference to translation invariance:
           :   -0.0000000000    0.0000000000   -0.0000000000

Difference to rotation invariance:
           :   -0.0000000000   -0.0000000000   -0.0000000000

Norm of the Dispersion gradient    ...    0.0053750859
RMS gradient                       ...    0.0008958477
MAX gradient                       ...    0.0018644655

------------------
CARTESIAN GRADIENT
------------------

   1   B   :    0.024359044    0.005534563    0.008653828
   2   B   :    0.008362678    0.015457528    0.019342485
   3   B   :   -0.025234578   -0.045098660    0.003894760
   4   B   :    0.047413439    0.001524379   -0.010651354
   5   B   :    0.016747058    0.040153429    0.002972193
   6   B   :    0.008632930    0.032222040   -0.006929115
   7   B   :   -0.031211047    0.051357808   -0.010177634
   8   B   :   -0.039461353    0.004286139   -0.001157383
   9   B   :   -0.030186691   -0.020258999    0.002150517
  10   B   :   -0.008350279   -0.029879166   -0.007865237
  11   B   :   -0.000666153   -0.029978986    0.000501681
  12   B   :    0.029594951   -0.025320075   -0.000734740

Difference to translation invariance:
           :    0.0000000000   -0.0000000000   -0.0000000000

Difference to rotation invariance:
           :   -0.0000122909   -0.0000377690    0.0000269914

Norm of the Cartesian gradient     ...    0.1398347690
RMS gradient                       ...    0.0233057948
MAX gradient                       ...    0.0513578080

-------
TIMINGS
-------

Total SCF gradient time     ....        1.218 sec

Densities                   ....       0.001 sec  (  0.1%)
One electron gradient       ....       0.038 sec  (  3.1%)
RI-J Coulomb gradient       ....       0.337 sec  ( 27.7%)
XC gradient                 ....       0.773 sec  ( 63.5%)

Maximum memory used throughout the entire SCFGRAD-calculation: 29.2 MB
------------------------------------------------------------------------------
                         ORCA GEOMETRY RELAXATION STEP
------------------------------------------------------------------------------

Reading the OPT-File                    .... done
Getting information on internals        .... done
Copying old internal coords+grads       .... done
Making the new internal coordinates     .... (2022 redundants) done
Validating the new internal coordinates .... (2022 redundants) done
Calculating the B-matrix                .... done
Calculating the G,G- and P matrices     .... done
Transforming gradient to internals      .... done
Projecting the internal gradient        .... done
Number of atoms                         ....  12
Number of internal coordinates          .... 186
Current Energy                          ....  -296.412278854 Eh
Current gradient norm                   ....     0.139834769 Eh/bohr
Maximum allowed component of the step   ....  0.300
Current trust radius                    ....  0.300
Evaluating the initial hessian          ....  (Almloef) done
Projecting the Hessian                  .... done
Forming the augmented Hessian           .... done
Diagonalizing the augmented Hessian     .... done
Last element of RFO vector              ....  0.742790042
Lowest eigenvalues of augmented Hessian:
 -0.116550044  0.010050886  0.010256763  0.010428261  0.010469593
Length of the computed step             ....  0.901364296
Warning: the length of the step is outside the trust region - taking restricted step instead
The input lambda is                     ....     0.009051
   iter:   5  x=   -0.009349  g= 5630.386420 f(x)=    43.134467
   iter:  10  x=   -0.173411  g=   12.664329 f(x)=     0.772716
   iter:  15  x=   -0.403920  g=    0.417349 f(x)=     0.000396
The output lambda is                    ....    -0.403923 (18 iterations)
The final length of the internal step   ....  0.300000000
Converting the step to Cartesian space:
 Initial RMS(Int)=    0.0219970673
Transforming coordinates:
 Iter   0:  RMS(Cart)=    0.0494602336 RMS(Int)=    0.0219959497
done
Storing new coordinates                 .... done

                                .--------------------.
          ----------------------|Geometry convergence|-------------------------
          Item                value                   Tolerance       Converged
          ---------------------------------------------------------------------
          RMS gradient        0.0096019647            0.0001000000      NO
          MAX gradient        0.0452237226            0.0003000000      NO
          RMS step            0.0219970673            0.0020000000      NO
          MAX step            0.0952509149            0.0040000000      NO
          -------------------------------------------------------------------------
          ........................................................
          Max(Bonds)      0.0504      Max(Angles)    0.82
          Max(Dihed)        0.45      Max(Improp)    0.00
          ---------------------------------------------------------------------

The optimization has not yet converged - more geometry cycles are needed


    ---------------------------------------------------------------------------
                         Redundant Internal Coordinates
                            (Angstroem and degrees)

        Definition                    Value    dE/dq     Step     New-Value
    ----------------------------------------------------------------------------
     1. B(B   1,B   0)                2.5289  0.037554 -0.0458    2.4831   
     2. B(B   2,B   1)                2.1810  0.040167 -0.0483    2.1327   
     3. B(B   2,B   0)                1.9832  0.045224 -0.0504    1.9328   
     4. B(B   3,B   0)                2.4948  0.023820 -0.0304    2.4644   
     5. B(B   4,B   3)                2.2639  0.032608 -0.0389    2.2250   
     6. B(B   4,B   0)                2.9273  0.025733 -0.0333    2.8940   
     7. B(B   5,B   1)                2.8356  0.020408 -0.0266    2.8090   
     8. B(B   5,B   4)                2.5767  0.025454 -0.0324    2.5443   
     9. B(B   6,B   5)                2.5575  0.023734 -0.0295    2.5281   
    10. B(B   6,B   1)                2.0269  0.034516 -0.0387    1.9882   
    11. B(B   7,B   1)                2.6613  0.026303 -0.0331    2.6281   
    12. B(B   7,B   6)                2.3593  0.029837 -0.0360    2.3232   
    13. B(B   8,B   7)                2.4463  0.034360 -0.0424    2.4039   
    14. B(B   8,B   2)                2.9008  0.017741 -0.0236    2.8771   
    15. B(B   9,B   2)                3.0289  0.015753 -0.0207    3.0082   
    16. B(B   9,B   8)                2.7814  0.018756 -0.0236    2.7577   
    17. B(B  10,B   9)                2.9056  0.015254 -0.0189    2.8867   
    18. B(B  10,B   2)                3.1751  0.016435 -0.0214    3.1537   
    19. B(B  11,B   3)                2.5879  0.028987 -0.0356    2.5523   
    20. B(B  11,B  10)                2.5088  0.031343 -0.0388    2.4700   
    21. B(B  11,B   0)                2.7900  0.018707 -0.0249    2.7651   
    22. A(B   3,B   0,B  11)           58.32  0.002038   -0.23     58.09   
    23. A(B   1,B   0,B   2)           56.26  0.000995   -0.15     56.11   
    24. A(B   1,B   0,B   3)          133.94  0.001829   -0.17    133.78   
    25. A(B   1,B   0,B  11)          167.43 -0.004025    0.42    167.84   
    26. A(B   1,B   0,B   4)           85.41 -0.000819    0.13     85.54   
    27. A(B   2,B   0,B  11)          111.23 -0.005006    0.56    111.79   
[...]

  6 B s       :     3.364609  s :     3.364609
      pz      :     0.441398  p :     1.860798
      px      :     0.741449
      py      :     0.677952
      dz2     :     0.003972  d :     0.044733
      dxz     :     0.007237
      dyz     :     0.005653
      dx2y2   :     0.014094
      dxy     :     0.013776

  7 B s       :     3.194230  s :     3.194230
      pz      :     0.441922  p :     1.571886
      px      :     0.561257
      py      :     0.568707
      dz2     :     0.003447  d :     0.047738
      dxz     :     0.006850
      dyz     :     0.006938
      dx2y2   :     0.015354
      dxy     :     0.015149

  8 B s       :     3.364384  s :     3.364384
      pz      :     0.440952  p :     1.860845
      px      :     0.615698
      py      :     0.804195
      dz2     :     0.003957  d :     0.044729
      dxz     :     0.009609
      dyz     :     0.003255
      dx2y2   :     0.014719
      dxy     :     0.013190

  9 B s       :     3.364413  s :     3.364413
      pz      :     0.439725  p :     1.860716
      px      :     0.811024
      py      :     0.609968
      dz2     :     0.003854  d :     0.044726
      dxz     :     0.003077
      dyz     :     0.009711
      dx2y2   :     0.014711
      dxy     :     0.013372

 10 B s       :     3.193933  s :     3.193933
      pz      :     0.437839  p :     1.572692
      px      :     0.570478
      py      :     0.564374
      dz2     :     0.003364  d :     0.047681
      dxz     :     0.006796
      dyz     :     0.006763
      dx2y2   :     0.015450
      dxy     :     0.015308

 11 B s       :     3.364171  s :     3.364171
      pz      :     0.436387  p :     1.860749
      px      :     0.668132
      py      :     0.756230
      dz2     :     0.003817  d :     0.044733
      dxz     :     0.005861
      dyz     :     0.006776
      dx2y2   :     0.014125
      dxy     :     0.014153



                     *******************************
                     * LOEWDIN POPULATION ANALYSIS *
                     *******************************

----------------------
LOEWDIN ATOMIC CHARGES
----------------------
   0 B :   -0.057986
   1 B :   -0.058121
   2 B :   -0.058257
   3 B :   -0.000515
   4 B :    0.059217
   5 B :   -0.000578
   6 B :   -0.000584
   7 B :    0.059330
   8 B :   -0.000542
   9 B :   -0.000712
  10 B :    0.059584
  11 B :   -0.000834

-------------------------------
LOEWDIN REDUCED ORBITAL CHARGES
-------------------------------
  0 B s       :     2.558744  s :     2.558744
      pz      :     0.652934  p :     2.277454
      px      :     0.838996
      py      :     0.785524
      dz2     :     0.020991  d :     0.221788
      dxz     :     0.025445
      dyz     :     0.025031
      dx2y2   :     0.080669
      dxy     :     0.069651

  1 B s       :     2.558674  s :     2.558674
      pz      :     0.654842  p :     2.277540
      px      :     0.786324
      py      :     0.836374
      dz2     :     0.021180  d :     0.221908
      dxz     :     0.025571
      dyz     :     0.025912
      dx2y2   :     0.078571
      dxy     :     0.070675

  2 B s       :     2.558663  s :     2.558663
      pz      :     0.654650  p :     2.277668
      px      :     0.809362
      py      :     0.813655
      dz2     :     0.021166  d :     0.221926
      dxz     :     0.025604
      dyz     :     0.025780
      dx2y2   :     0.065268
      dxy     :     0.084108

  3 B s       :     2.788004  s :     2.788004
      pz      :     0.470834  p :     2.104363
      px      :     0.672861
      py      :     0.960668
      dz2     :     0.011304  d :     0.108148
      dxz     :     0.017913
      dyz     :     0.008857
      dx2y2   :     0.032037
      dxy     :     0.038037

  4 B s       :     2.735730  s :     2.735730
      pz      :     0.461383  p :     2.075416
      px      :     0.815124
      py      :     0.798908
      dz2     :     0.011443  d :     0.129637
      dxz     :     0.014754
      dyz     :     0.014623
      dx2y2   :     0.047320
      dxy     :     0.041497

  5 B s       :     2.787855  s :     2.787855
      pz      :     0.475636  p :     2.104571
      px      :     0.964946
      py      :     0.663990
      dz2     :     0.011235  d :     0.108152
      dxz     :     0.008894
      dyz     :     0.018542
      dx2y2   :     0.031856
      dxy     :     0.037626

  6 B s       :     2.787868  s :     2.787868
      pz      :     0.477431  p :     2.104552
      px      :     0.839716
      py      :     0.787405
      dz2     :     0.011365  d :     0.108164
      dxz     :     0.015493
      dyz     :     0.012251
      dx2y2   :     0.035646
      dxy     :     0.033409

  7 B s       :     2.735606  s :     2.735606
      pz      :     0.465493  p :     2.075328
      px      :     0.671825
      py      :     0.938010
      dz2     :     0.011392  d :     0.129736
      dxz     :     0.013424
      dyz     :     0.016971
      dx2y2   :     0.042297
      dxy     :     0.045652

  8 B s       :     2.787903  s :     2.787903
      pz      :     0.476823  p :     2.104480
      px      :     0.702922
      py      :     0.924735
      dz2     :     0.011364  d :     0.108159
      dxz     :     0.019787
      dyz     :     0.007852
      dx2y2   :     0.036832
      dxy     :     0.032325

  9 B s       :     2.787787  s :     2.787787
      pz      :     0.475244  p :     2.104787
      px      :     0.932093
      py      :     0.697450
      dz2     :     0.011236  d :     0.108139
      dxz     :     0.007585
      dyz     :     0.019762
      dx2y2   :     0.036656
      dxy     :     0.032899

 10 B s       :     2.735957  s :     2.735957
      pz      :     0.460934  p :     2.074898
      px      :     0.931828
      py      :     0.682136
      dz2     :     0.011444  d :     0.129561
      dxz     :     0.016330
      dyz     :     0.012982
      dx2y2   :     0.043197
      dxy     :     0.045607

 11 B s       :     2.787699  s :     2.787699
      pz      :     0.471230  p :     2.104962
      px      :     0.776986
      py      :     0.856746
      dz2     :     0.011306  d :     0.108174
      dxz     :     0.012360
      dyz     :     0.014413
      dx2y2   :     0.035574
      dxy     :     0.034521



                      *****************************
                      * MAYER POPULATION ANALYSIS *
                      *****************************

  NA   - Mulliken gross atomic population
  ZA   - Total nuclear charge
  QA   - Mulliken gross atomic charge
  VA   - Mayer's total valence
  BVA  - Mayer's bonded valence
  FA   - Mayer's free valence

  ATOM       NA         ZA         QA         VA         BVA        FA
  0 B      4.6469     5.0000     0.3531     2.8216     2.8216    -0.0000
  1 B      4.6465     5.0000     0.3535     2.8204     2.8204    -0.0000
  2 B      4.6457     5.0000     0.3543     2.8186     2.8186     0.0000
  3 B      5.2693     5.0000    -0.2693     3.2803     3.2803    -0.0000
  4 B      4.8143     5.0000     0.1857     3.3160     3.3160    -0.0000
  5 B      5.2695     5.0000    -0.2695     3.2800     3.2800    -0.0000
  6 B      5.2701     5.0000    -0.2701     3.2801     3.2801     0.0000
  7 B      4.8139     5.0000     0.1861     3.3157     3.3157     0.0000
  8 B      5.2700     5.0000    -0.2700     3.2795     3.2795    -0.0000
  9 B      5.2699     5.0000    -0.2699     3.2805     3.2805    -0.0000
 10 B      4.8143     5.0000     0.1857     3.3149     3.3149     0.0000
 11 B      5.2697     5.0000    -0.2697     3.2816     3.2816     0.0000

  Mayer bond orders larger than 0.100000
B(  0-B ,  1-B ) :   0.4792 B(  0-B ,  2-B ) :   0.4787 B(  0-B ,  3-B ) :   0.5074 
B(  0-B ,  4-B ) :   0.4398 B(  0-B , 10-B ) :   0.4391 B(  0-B , 11-B ) :   0.5083 
B(  1-B ,  2-B ) :   0.4783 B(  1-B ,  4-B ) :   0.4392 B(  1-B ,  5-B ) :   0.5075 
B(  1-B ,  6-B ) :   0.5079 B(  1-B ,  7-B ) :   0.4397 B(  2-B ,  7-B ) :   0.4396 
B(  2-B ,  8-B ) :   0.5069 B(  2-B ,  9-B ) :   0.5073 B(  2-B , 10-B ) :   0.4387 
B(  3-B ,  4-B ) :   1.0807 B(  3-B , 11-B ) :   1.4828 B(  4-B ,  5-B ) :   1.0805 
B(  5-B ,  6-B ) :   1.4828 B(  6-B ,  7-B ) :   1.0802 B(  7-B ,  8-B ) :   1.0804 
B(  8-B ,  9-B ) :   1.4834 B(  9-B , 10-B ) :   1.0807 B( 10-B , 11-B ) :   1.0810 


-------
TIMINGS
-------

Total SCF time: 0 days 0 hours 0 min 10 sec 

Total time                  ....      10.689 sec
Sum of individual times     ....       6.245 sec  ( 58.4%)

SCF preparation             ....       1.595 sec  ( 14.9%)
Fock matrix formation       ....       3.361 sec  ( 31.4%)
  Startup                   ....       0.018 sec  (  0.5% of F)
  Split-RI-J                ....       1.694 sec  ( 50.4% of F)
  XC integration            ....       4.281 sec  (127.4% of F)
    XC Preparation          ....       0.000 sec  (  0.0% of XC)
    Basis function eval.    ....       0.473 sec  ( 11.0% of XC)
    Density eval.           ....       0.365 sec  (  8.5% of XC)
    XC-Functional eval.     ....       0.051 sec  (  1.2% of XC)
    XC-Potential eval.      ....       0.370 sec  (  8.6% of XC)
Diagonalization             ....       0.000 sec  (  0.0%)
Density matrix formation    ....       0.106 sec  (  1.0%)
Total Energy calculation    ....       0.029 sec  (  0.3%)
Population analysis         ....       0.351 sec  (  3.3%)
Orbital Transformation      ....       0.432 sec  (  4.0%)
Orbital Orthonormalization  ....       0.000 sec  (  0.0%)
DIIS solution               ....       0.043 sec  (  0.4%)
SOSCF solution              ....       0.329 sec  (  3.1%)
Finished LeanSCF after  11.2 sec

Maximum memory used throughout the entire LEANSCF-calculation: 12.3 MB


-------------------------------------------------------------------------------
                          DFT DISPERSION CORRECTION                            
                                                                               
                              DFTD3 V3.1  Rev 1                                
                          USING Becke-Johnson damping                          
-------------------------------------------------------------------------------
The BP86 functional is recognized
Active option DFTDOPT                   ...         4   

molecular C6(AA) [au] = 4351.775287 


            DFT-D V3
 parameters
 s6 scaling factor         :     1.0000 
 a1 scaling factor         :     0.3946 
 s8 scaling factor         :     3.2822 
 a2 scaling factor         :     4.8516 
 ad hoc parameters k1-k3   :    16.0000     1.3333    -4.0000 

 Edisp/kcal,au: -20.740629500231  -0.033052293463 
 E6   /kcal   :  -5.977924547 
 E8   /kcal   : -14.762704953 
 % E8         :  71.177709206 

-------------------------   ----------------
Dispersion correction           -0.033052293
-------------------------   ----------------


-------------------------   --------------------
FINAL SINGLE POINT ENERGY      -297.750639517417
-------------------------   --------------------

                                *** OPTIMIZATION RUN DONE ***



           ************************************************************
           *        Program running with 8 parallel MPI-processes     *
           *              working on a common directory               *
           ************************************************************

------------------------------------------------------------------------------
                              ORCA PROPERTY CALCULATIONS
------------------------------------------------------------------------------

GBWName                                 ... quasi_planar_nn2.00_perturb2.gbw
Number of atoms                         ...     12
Number of basis functions               ...    168
Max core memory                         ...   2500 MB

Electric properties:
Dipole moment                           ... YES
Quadrupole moment                       ...  NO
Static polarizability (Dipole/Dipole)   ...  NO
Static polarizability (Dipole/Quad.)    ...  NO
Static polarizability (Quad./Quad.)     ...  NO
Static polarizability (Velocity)        ...  NO
Static hyperpolarizability              ...  NO

Atomic electric properties:
Dipole moment                           ...  NO
Quadrupole moment                       ...  NO
Static polarizability                   ...  NO

Choice of electric origin               ... Center of mass
Position of electric origin             ...    -0.102284     0.038098     0.087772

General magnetic properties:
Magnetizability                         ...  NO

EPR properties:
g-Tensor (aka g-matrix)                 ...  NO
Zero-Field splitting spin-orbit         ...  NO
Zero-field splitting spin-spin          ...  NO
Hyperfine couplings                     ...  NO (   0 nuclei)
Quadrupole couplings                    ...  NO (   0 nuclei)
Contact density                         ...  NO (   0 nuclei)

NMR properties:
Chemical shifts                         ...  NO (   0 nuclei)
Spin-rotation constants                 ...  NO (   0 nuclei)
Spin-spin couplings                     ...  NO (   0 nuclei,    0 pairs)

Choice of magnetic origin               ... GIAO
Position of magnetic origin             ...     0.000000     0.000000     0.000000

Properties with geometric perturbations:
SCF Hessian                             ...  NO
IR spectrum                             ...  NO
VCD spectrum                            ...  NO
X-ray spectroscopy properties:
SCF XES/XAS/RIXS spectra                ...  NO

SCF SOC stabilization energy            ...  NO
Diagonal Born-Oppenheimer correction    ...  NO

-------------
DIPOLE MOMENT
-------------

Method             : SCF
Type of density    : Electron Density
Multiplicity       :   1
Irrep              :   0
Energy             :  -297.7175872239536716 Eh
Basis              : AO
                                X                 Y                 Z
Electronic contribution:     -0.011963478       0.003644001      -0.777978961
Nuclear contribution   :      0.000000000       0.000000000      -0.000000000
                        -----------------------------------------
Total Dipole Moment    :     -0.011963478       0.003644001      -0.777978961
                        -----------------------------------------
Magnitude (a.u.)       :      0.778079474
Magnitude (Debye)      :      1.977720850



--------------------
Rotational spectrum 
--------------------
 
Rotational constants in cm-1:             0.058827             0.058808             0.030104 
Rotational constants in MHz :          1763.576627          1763.017211           902.501880 

Dipole components along the rotational axes: 
x,y,z [a.u.] :    -0.000017    -0.000066    -0.778079 
x,y,z [Debye]:    -0.000043    -0.000168    -1.977721 

 

Dipole moment calculation done in   0.1 sec 

Maximum memory used throughout the entire PROP-calculation: 10.0 MB

--------------------------------
SUGGESTED CITATIONS FOR THIS RUN
--------------------------------

Below you find a list of papers that are relevant to this ORCA run
We neither can nor want to force you to cite these papers, but we appreciate if you do
You receive ORCA, which is the product of decades of hard work by many enthusiastic individuals, for free
The only thing we kindly ask in return is that you cite our papers,
We deeply appreciate it, if you show your appreciation for ORCA by not just citing the generic ORCA reference.

Please note that relegating all ORCA citations to the supporting information does *not* help us.
SI sections are not indexed - citations you put there will not count into any citation statistics
But we need these citations in order to attract the funding resources that allow us to do what we are doing

Therefore, if you are a happy ORCA user, please consider citing a few of the papers listed below in the main body of your paper

In addition to the list printed below, the program has created the file quasi_planar_nn2.00_perturb2.bibtex that contains the list in bibtex format
You can import this file easily into all common literature databanks and citation aid programs

It goes without saying that in many instances, there are alternative algorithms to achieve similar
results as the ones you have gotten from ORCA. It is, of course, also the case that in some instances
ORCA just re-implements algorithms worked out by others. We are fully aware of that and we are also
fully appreciative of our colleagues work. Hence this citation list should not be read as indicating
that the listed papers, which are focused on our own work, are the only ones worth citing. It simply
meant to make it easier for users to cite ORCA specific papers. It is not a substitute for doing your
own literature research and citing the relevant literature in a scientifically appropriate manner.

List of essential papers. We consider these as the minimum necessary citations

  1. Neese, F.
     Software update: the ORCA program system, version 6.0
     WIRES Comput. Molec. Sci. 2025 15(1), e70019
     doi.org/10.1002/wcms.70019

List of papers to cite with high priority. The work reported in these papers was absolutely
necessary for this run to complete.
Our perspective: the developers of density functionals and basis sets usually get cited in chemistry papers
Good! But without the algorithms to do something with them, the functionals or basis sets would not do anything.
Hence, in our opinion, the algorithm design and method developments papers are equally worthy of getting cited

  1. Neese, F.
     An improvement of the resolution of the identity approximation for the formation of the Coulomb matrix
     J. Comp. Chem. 2003 24(14), 1740-1747
     doi.org/10.1002/jcc.10318
  2. Grimme, S.; Antony, J.; Ehrlich, S.; Krieg, H.
     A consistent and accurate ab initio parametrization of density functional dispersion correction (DFT-D) for the 94 elements H-Pu
     J. Chem. Phys. 2010 132 , 154104
     doi.org/10.1063/1.3382344
  3. Grimme, S.; Ehrlich, S.; Goerigk, L.
     Effect of the damping function in dispersion corrected density functional theory
     J. Comput. Chem. 2011 32(7), 1456-1465
     doi.org/10.1002/jcc.21759
  4. Neese, F.
     The SHARK Integral Generation and Digestion System
     J. Comp. Chem. 2022 44(3), 381
     doi.org/10.1002/jcc.26942

List of suggested additional citations. These are papers that are important in the 'surrounding' of 
of this run, or papers that preceded the highly important papers. If you like your results we are grateful for a citation.

  1. Neese, F.
     The ORCA program system
     WIRES Comput. Molec. Sci. 2012 2(1), 73-78
     doi.org/10.1002/wcms.81
  2. Neese, F.
     Software update: the ORCA program system, version 4.0
     WIRES Comput. Molec. Sci. 2018 8(1), 1-6
     doi.org/10.1002/wcms.1327
  3. Neese, F.; Wennmohs, F.; Becker, U.; Riplinger, C.
     The ORCA quantum chemistry program package
     J. Chem. Phys. 2020 152(22), 224108
     doi.org/10.1063/5.0004608
  4. Neese, F.
     Software update: The ORCA program system—Version 5.0
     WIRES Comput. Molec. Sci. 2022 12(1), e1606
     doi.org/10.1002/wcms.1606

List of optional additional citations

  1. Neese, F.
     Approximate second-order SCF convergence for spin unrestricted wavefunctions
     Chem. Phys. Lett. 2000 325(1-3), 93-98
     doi.org/10.1016/s0009-2614(00)00662-x

Timings for individual modules:

Sum of individual times          ...     1074.731 sec (=  17.912 min)
Startup calculation              ...      123.957 sec (=   2.066 min)  11.5 %
SCF iterations                   ...      779.771 sec (=  12.996 min)  72.6 %
Property calculations            ...        1.424 sec (=   0.024 min)   0.1 %
SCF Gradient evaluation          ...      167.986 sec (=   2.800 min)  15.6 %
Geometry relaxation              ...        1.593 sec (=   0.027 min)   0.1 %
                             ****ORCA TERMINATED NORMALLY****
TOTAL RUN TIME: 0 days 0 hours 18 minutes 52 seconds 841 msec
