
                                 *****************
                                 * O   R   C   A *
                                 *****************

                                            #,                                       
                                            ###                                      
                                            ####                                     
                                            #####                                    
                                            ######                                   
                                           ########,                                 
                                     ,,################,,,,,                         
                               ,,#################################,,                 
                          ,,##########################################,,             
                       ,#########################################, ''#####,          
                    ,#############################################,,   '####,        
                  ,##################################################,,,,####,       
                ,###########''''           ''''###############################       
              ,#####''   ,,,,##########,,,,          '''####'''          '####       
            ,##' ,,,,###########################,,,                        '##       
           ' ,,###''''                  '''############,,,                           
         ,,##''                                '''############,,,,        ,,,,,,###''
      ,#''                                            '''#######################'''  
     '                                                          ''''####''''         
             ,#######,   #######,   ,#######,      ##                                
            ,#'     '#,  ##    ##  ,#'     '#,    #''#        ,####,    ,#,          
            ##       ##  ##   ,#'  ##            #'  '#       #'       ,# #          
            ##       ##  #######   ##           ,######,      #####,      #          
            '#,     ,#'  ##    ##  '#,     ,#' ,#      #,     #,   #      #          
             '#######'   ##     ##  '#######'  #'      '#     '####' #    #          



                #########################################################
                #                        -***-                          #
                #          Department of theory and spectroscopy        #
                #                                                       #
                #                      Frank Neese                      #
                #                                                       #
                #     Directorship, Architecture, Infrastructure        #
                #                    SHARK, DRIVERS                     #
                #        Core code/Algorithms in most modules           #
                #                                                       #
                #        Max Planck Institute fuer Kohlenforschung      #
                #                Kaiser Wilhelm Platz 1                 #
                #                 D-45470 Muelheim/Ruhr                 #
                #                      Germany                          #
                #                                                       #
                #                  All rights reserved                  #
                #                        -***-                          #
                #########################################################


                         Program Version 6.1.1  -  RELEASE   -
                                (GIT: $487d211c$)
                          ($2025-11-21 10:33:24 +0100$)
                                                                         
                                  - NO-DMRG VERSION -                    
                                                                         


 With contributions from (in alphabetic order):
[Max-Planck-Institut fuer Kohlenforschung]                               
  Daniel Aravena         : Magnetic Suceptibility                        
  Michael Atanasov       : Ab Initio Ligand Field Theory (pilot matlab implementation)
  Alexander A. Auer      : GIAO ZORA, VPT2 properties, NMR spectrum      
  Ute Becker             : All parallelization in ORCA, NUMFREQ, NUMCALC 
  Giovanni Bistoni       : ED, misc. LED, open-shell LED, HFLD           
  Dmytro Bykov           : pre 5.0 version of the SCF Hessian            
  Marcos Casanova-Páez   : Triplet and SCS-CIS(D). UHF-(DLPNO)-IP/EA/STEOM-CCSD. UHF-CVS-IP/STEOM-CCSD   
  Vijay G. Chilkuri      : MRCI spin determinant printing, contributions to CSF-ICE 
  Pauline Colinet        : FMM embedding                                 
  Dipayan Datta          : RHF DLPNO-CCSD density                        
  Achintya Kumar Dutta   : EOM-CC, STEOM-CC                              
  Nicolas Foglia         : Exact transition moments, OPA infrastructure, MCD improvements    
  Dmitry Ganyushin       : Spin-Orbit,Spin-Spin,Magnetic field MRCI      
  Miquel Garcia-Rates    : C-PCM and meta-GGA Hessian, CCSD/C-PCM, Gaussian charge scheme 
  Tiago L. C. Gouveia    : GS-ROHF, GS-ROCIS                             
  Yang Guo               : DLPNO-NEVPT2, F12-NEVPT2, CIM, IAO-localization        
  Andreas Hansen         : Spin unrestricted coupled pair/coupled cluster methods 
  Ingolf Harden          : AUTO-CI MPn and infrastructure                
  Benjamin Helmich-Paris : MC-RPA, TRAH-(SCF,CASSCF), AVAS, COSX integrals, SCF dyn. polar., MC-PDFT, srDFT 
  Lee Huntington         : MR-EOM, pCC                                   
  Robert Izsak           : Overlap fitted RIJCOSX, COSX-SCS-MP3, EOM     
  Riya Kayal             : Wick's Theorem for AUTO-CI, AUTO-CI UHF-CCSDT 
  Emily Kempfer          : AUTO-CI RHF CISDT and CCSDT, approximate NEVPT4
  Christian Kollmar      : KDIIS, OOCD, Brueckner-CCSD(T), CCSD density, CASPT2, CASPT2-K, improved NEVPT2 
  Axel Koslowski         : Symmetry handling                             
  Simone Kossmann        : meta-GGA functionals, TD-DFT gradient, OOMP2, (MP2 Hessian; deprecated post 5.0) 
  Lucas Lang             : DCDCAS, Hyperfine gauge corrections, ICE-SOC+SSC
  Marvin Lechner         : AUTO-CI (C++ implementation), FIC-MRCC        
  Spencer Leger          : CASSCF response                               
  Dagmar Lenk            : GEPOL surface, SMD, ORCA-2-JSON               
  Dimitrios Liakos       : Extrapolation schemes; Compound Job, Property file
  Dimitrios Manganas     : Further ROCIS development; embedding schemes. LFT, Crystal Embedding 
  Dimitrios Pantazis     : SARC Basis sets                               
  Anastasios Papadopoulos: AUTO-CI, single reference methods and gradients 
  Taras Petrenko         : pre 6.0 DFT Hessian and TD-DFT gradient,  ECA, NRVS 
  Petra Pikulova         : Analytic Raman intensities                    
  Peter Pinski           : DLPNO-MP2, DLPNO-MP2 Gradient                 
  Shashank Vittal Rao    : ES-AILFT, MagRelax                            
  Christoph Reimann      : Effective Core Potentials                     
  Marius Retegan         : Local ZFS, SOC                                
  Christoph Riplinger    : Optimizer, TS searches, QM/MM, DLPNO-CCSD(T), (RO)-DLPNO pert. Triples 
  Michael Roemelt        : Original ROCIS implementation, recursive CI coupling coefficients
  Masaaki Saitow         : Open-shell DLPNO-CCSD energy and density      
  Barbara Sandhoefer     : DKH picture change effects                    
  Yorick L. A. Schmerwitz: GMF and freeze-and-release deltaSCF, NEB S-IDPP initial path                    
  Kantharuban Sivalingam : CASSCF convergence/infrastructure, NEVPT2, NEVPT3, NEVPT4(SD), FIC-MRCI and CEPA variants
  Bernardo de Souza      : ESD, SOC TD-DFT                               
  Georgi L. Stoychev     : AutoAux, RI-MP2 NMR, DLPNO-MP2 response, X2C  
  Van Anh Tran           : RI-MP2 g-tensors                              
  Willem Van den Heuvel  : Paramagnetic NMR                              
  Zikuan Wang            : NOTCH, Electric field optimization            
  Frank Wennmohs         : Technical directorship and infrastructure     
  Hang Xu                : AUTO-CI-Response properties                   
                                                                         
[FACCTs GmbH]                                                            
  Markus Bursch, Nicolas Foglia, Miquel Garcia-Rates, Ingolf Harden, Hagen Neugebauer, Anastasios Papadopoulos, 
  Christoph Riplinger, Bernardo de Souza, Georgi L. Stoychev                                                    
                                                                 
  APM, various basis sets, CI-OPT, improved COSX, DLPNO-Multilevel,           
  DOCKER, DRACO, updates on ESD, Fragmentator, GOAT, IRC, LR-CPCM, L-BFGS, MBIS, meta-GGA TD-DFT gradient, ML-optimized integration grids, 
  MM, NACMEs, nearIR, NEB, NEB-TS, NL-DFT gradient (VV10), 2- and 3-layer-ONIOM, interface openCOSMO-RS, QMMM,   
  Crystal-QMMM, RESP, rigid body optimization, SF, symmetry and pop. for TD-DFT, various functionals, SOLVATOR                                   
                                                                         
[Other institutions]                                                     
  V. Asgeirsson          : NEB                                           
  Christoph Bannwarth    : sTDA-DFT, sTD-DFT, PBEh-3c, B97-3c, D3        
  Giovanni Bistoni       : ETS/NOCV, ADLD/ADEX, COVALED                  
  Martin Brehm           : Molecular dynamics                            
  Ronald Cardenas        : ETS/NOCV                                      
  Martina Colucci        : COVALED                                       
  Sebastian Ehlert       : rSCAN, r2SCAN, r2SCAN-3c, D4, dhf basis sets  
  Marvin Friede          : D4 for Fr, Ra, Ac-Lr                          
  Lars Goerigk           : TD-DFT with DH, B97 family of functionals     
  Stefan Grimme          : VdW corrections, initial TS optimization, DFT functionals, gCP, sTDA/sTD-DF 
  Waldemar Hujo          : DFT-NL                                        
  H. Jonsson             : NEB                                           
  Holger Kruse           : gCP                                           
  Marcel Mueller         : wB97X-3c, vDZP basis set                      
  Hagen Neugebauer       : wr2SCAN, Native XTB                           
  Gianluca Regni         : ADLD/ADEX                                     
  Tobias Risthaus        : pre 6.0 range-separated hybrid DFT and stability analysis
  Lukas Wittmann         : regularized MP2, r2SCAN double-hybrids, wr2SCAN        
                                                                         
We gratefully acknowledge several colleagues who have allowed us to      
interface, adapt or use parts of their codes:                            
  Ed Valeev, F. Pavosevic, A. Kumar             : LibInt (2-el integral package), F12 methods 
  Garnet Chan, S. Sharma, J. Yang, R. Olivares  : DMRG                   
  Ulf Ekstrom                                   : XCFun DFT Library      
  Mihaly Kallay                                 : mrcc  (arbitrary order and MRCC methods)
  Frank Weinhold                                : gennbo (NPA and NBO analysis)           
  Simon Mueller                                 : openCOSMO-RS                            
  Christopher J. Cramer and Donald G. Truhlar   : smd solvation model                     
  S Lehtola, MJT Oliveira, MAL Marques          : LibXC Library                           
  Liviu Ungur et al                             : ANISO software                          


 Your calculation uses the libint2 library for the computation of 2-el integrals
 For citations please refer to: http://libint.valeyev.net

 Your ORCA version has been built with support for libXC version: 7.0.0
 For citations please refer to: https://libxc.gitlab.io

 This ORCA versions uses:
   CBLAS   interface :  Fast vector & matrix operations
   LAPACKE interface :  Fast linear algebra routines
   SCALAPACK package :  Parallel linear algebra routines
   Shared memory     :  Shared parallel matrices
   BLAS/LAPACK       :  OpenBLAS 0.3.29  USE64BITINT DYNAMIC_ARCH NO_AFFINITY Zen SINGLE_THREADED
        Core in use  :  Zen
   Copyright (c) 2011-2014, The OpenBLAS Project


  ***********************************
  * Starting time: Thu Apr 23 09:35:35 2026
  * Host name:     vmi3233575
  * Process ID:    1097485
  * Working dir.:  /root/b12_scan/jobs/cuboctahedron_nn1.80
  ***********************************

NOTE: MaxCore=2500 MB was set to SCF,MP2,MDCI,CIPSI,MRCI,RASCI and CIS
      => If you want to overwrite this, your respective input block should be placed after the MaxCore statement
Your calculation utilizes the atom-pairwise dispersion correction
with the Becke-Johnson damping scheme (D3BJ)


================================================================================

----- Orbital basis set information -----
Your calculation utilizes the basis: def2-SVP
   F. Weigend and R. Ahlrichs, Phys. Chem. Chem. Phys. 7, 3297 (2005).

----- AuxJ basis set information -----
Your calculation utilizes the auxiliary basis: def2/J
   H-Rn: F. Weigend, Phys. Chem. Chem. Phys. 8, 1057 (2006).
   Fr-Lr: K. Eichkorn, F. Weigend, O. Treutler, R. Ahlrichs; Theor. Chem. Acc. 97, 119 (1997).

================================================================================
                                        WARNINGS
                       Please study these warnings very carefully!
================================================================================


WARNING: Geometry Optimization
  ===> : Switching off AutoStart
         For restart on a previous wavefunction, please use MOREAD

================================================================================
                                       INPUT FILE
================================================================================
NAME = cuboctahedron_nn1.80.inp
|  1> ! BP86 def2-SVP def2/J RI Opt TightSCF D3BJ
|  2> ! SlowConv
|  3> 
|  4> %pal nprocs 8 end
|  5> %maxcore 2500
|  6> 
|  7> %geom
|  8>   MaxIter 300
|  9> end
| 10> 
| 11> * xyz 0 1
| 12> B      0.00000000     -1.27279221     -1.27279221
| 13> B     -1.27279221      0.00000000     -1.27279221
| 14> B     -1.27279221     -1.27279221      0.00000000
| 15> B      0.00000000     -1.27279221      1.27279221
| 16> B     -1.27279221      0.00000000      1.27279221
| 17> B     -1.27279221      1.27279221      0.00000000
| 18> B      0.00000000      1.27279221     -1.27279221
| 19> B      1.27279221      0.00000000     -1.27279221
| 20> B      1.27279221     -1.27279221      0.00000000
| 21> B      0.00000000      1.27279221      1.27279221
| 22> B      1.27279221      0.00000000      1.27279221
| 23> B      1.27279221      1.27279221      0.00000000
| 24> *
| 25> 
| 26>                          ****END OF INPUT****
================================================================================

                       *****************************
                       * Geometry Optimization Run *
                       *****************************

Geometry optimization settings:
Update method            Update   .... BFGS
Choice of coordinates    CoordSys .... (2022) Redundant Internals
Initial Hessian          InHess   .... Almloef's Model
Max. no of cycles        MaxIter  .... 300

Convergence Tolerances:
Energy Change            TolE     ....  5.0000e-06 Eh
Max. Gradient            TolMAXG  ....  3.0000e-04 Eh/bohr
RMS Gradient             TolRMSG  ....  1.0000e-04 Eh/bohr
Max. Displacement        TolMAXD  ....  4.0000e-03 bohr
RMS Displacement         TolRMSD  ....  2.0000e-03 bohr
Strict Convergence                .... False

------------------------------------------------------------------------------
                        ORCA OPTIMIZATION COORDINATE SETUP
------------------------------------------------------------------------------

The optimization will be done in redundant internal coordinates (2022)
Making redundant internal coordinates   ...  (2022 redundants) done
Evaluating the initial hessian          ...  (Almloef) done
Evaluating the coordinates              ...  done
Calculating the B-matrix                .... done
Calculating the G-matrix                .... done
The number of degrees of freedom        ....  240

    -----------------------------------------------------------------
                    Redundant Internal Coordinates


    -----------------------------------------------------------------
         Definition                    Initial Value    Approx d2E/dq
    -----------------------------------------------------------------
      1. B(B   1,B   0)                  1.8000         0.185885   
      2. B(B   2,B   1)                  1.8000         0.185885   
      3. B(B   2,B   0)                  1.8000         0.185885   
      4. B(B   3,B   2)                  1.8000         0.185885   
      5. B(B   4,B   2)                  1.8000         0.185885   
      6. B(B   4,B   3)                  1.8000         0.185885   
      7. B(B   5,B   1)                  1.8000         0.185885   
      8. B(B   5,B   4)                  1.8000         0.185885   
      9. B(B   6,B   5)                  1.8000         0.185885   
     10. B(B   6,B   1)                  1.8000         0.185885   
     11. B(B   7,B   6)                  1.8000         0.185885   
     12. B(B   7,B   0)                  1.8000         0.185885   
     13. B(B   8,B   7)                  1.8000         0.185885   
     14. B(B   8,B   3)                  1.8000         0.185885   
     15. B(B   8,B   0)                  1.8000         0.185885   
     16. B(B   9,B   5)                  1.8000         0.185885   
     17. B(B   9,B   4)                  1.8000         0.185885   
     18. B(B  10,B   9)                  1.8000         0.185885   
     19. B(B  10,B   8)                  1.8000         0.185885   
     20. B(B  10,B   3)                  1.8000         0.185885   
     21. B(B  11,B  10)                  1.8000         0.185885   
     22. B(B  11,B   9)                  1.8000         0.185885   
     23. B(B  11,B   7)                  1.8000         0.185885   
     24. B(B  11,B   6)                  1.8000         0.185885   
     25. A(B   7,B   0,B   8)           60.0000         0.297719   
     26. A(B   1,B   0,B   7)           90.0000         0.297719   
     27. A(B   2,B   0,B   7)          120.0000         0.297719   
     28. A(B   2,B   0,B   8)           90.0000         0.297719   
     29. A(B   1,B   0,B   2)           60.0000         0.297719   
     30. A(B   1,B   0,B   8)          120.0000         0.297719   
     31. A(B   2,B   1,B   5)           90.0000         0.297719   
     32. A(B   0,B   1,B   2)           60.0000         0.297719   
     33. A(B   2,B   1,B   6)          120.0000         0.297719   
     34. A(B   0,B   1,B   5)          120.0000         0.297719   
     35. A(B   5,B   1,B   6)           60.0000         0.297719   
     36. A(B   0,B   1,B   6)           90.0000         0.297719   
     37. A(B   1,B   2,B   3)          120.0000         0.297719   
     38. A(B   0,B   2,B   4)          120.0000         0.297719   
     39. A(B   0,B   2,B   3)           90.0000         0.297719   
     40. A(B   3,B   2,B   4)           60.0000         0.297719   
     41. A(B   0,B   2,B   1)           60.0000         0.297719   
     42. A(B   1,B   2,B   4)           90.0000         0.297719   
     43. A(B   4,B   3,B   8)          120.0000         0.297719   
     44. A(B   4,B   3,B  10)           90.0000         0.297719   
     45. A(B   8,B   3,B  10)           60.0000         0.297719   
     46. A(B   2,B   3,B  10)          120.0000         0.297719   
     47. A(B   2,B   3,B   8)           90.0000         0.297719   
     48. A(B   2,B   3,B   4)           60.0000         0.297719   
     49. A(B   5,B   4,B   9)           60.0000         0.297719   
     50. A(B   2,B   4,B   5)           90.0000         0.297719   
     51. A(B   3,B   4,B   5)          120.0000         0.297719   
     52. A(B   3,B   4,B   9)           90.0000         0.297719   
     53. A(B   2,B   4,B   9)          120.0000         0.297719   
     54. A(B   2,B   4,B   3)           60.0000         0.297719   
     55. A(B   6,B   5,B   9)           90.0000         0.297719   
     56. A(B   4,B   5,B   9)           60.0000         0.297719   
     57. A(B   1,B   5,B   9)          120.0000         0.297719   
     58. A(B   4,B   5,B   6)          120.0000         0.297719   
     59. A(B   1,B   5,B   6)           60.0000         0.297719   
     60. A(B   1,B   5,B   4)           90.0000         0.297719   
     61. A(B   7,B   6,B  11)           60.0000         0.297719   
     62. A(B   5,B   6,B  11)           90.0000         0.297719   
     63. A(B   1,B   6,B  11)          120.0000         0.297719   
     64. A(B   5,B   6,B   7)          120.0000         0.297719   
     65. A(B   1,B   6,B   7)           90.0000         0.297719   
     66. A(B   1,B   6,B   5)           60.0000         0.297719   
     67. A(B   8,B   7,B  11)           90.0000         0.297719   
     68. A(B   6,B   7,B  11)           60.0000         0.297719   
     69. A(B   0,B   7,B  11)          120.0000         0.297719   
     70. A(B   0,B   7,B   6)           90.0000         0.297719   
     71. A(B   6,B   7,B   8)          120.0000         0.297719   
     72. A(B   0,B   7,B   8)           60.0000         0.297719   
     73. A(B   7,B   8,B  10)           90.0000         0.297719   
     74. A(B   3,B   8,B  10)           60.0000         0.297719   
     75. A(B   0,B   8,B  10)          120.0000         0.297719   
     76. A(B   3,B   8,B   7)          120.0000         0.297719   
     77. A(B   0,B   8,B   7)           60.0000         0.297719   
     78. A(B   0,B   8,B   3)           90.0000         0.297719   
     79. A(B   5,B   9,B  11)           90.0000         0.297719   
     80. A(B   4,B   9,B  11)          120.0000         0.297719   
     81. A(B   5,B   9,B  10)          120.0000         0.297719   
     82. A(B   4,B   9,B  10)           90.0000         0.297719   
     83. A(B   4,B   9,B   5)           60.0000         0.297719   
     84. A(B  10,B   9,B  11)           60.0000         0.297719   
     85. A(B   8,B  10,B   9)          120.0000         0.297719   
     86. A(B   3,B  10,B   9)           90.0000         0.297719   
     87. A(B   3,B  10,B   8)           60.0000         0.297719   
     88. A(B   9,B  10,B  11)           60.0000         0.297719   
     89. A(B   8,B  10,B  11)           90.0000         0.297719   
     90. A(B   3,B  10,B  11)          120.0000         0.297719   
     91. A(B   6,B  11,B   7)           60.0000         0.297719   
     92. A(B   9,B  11,B  10)           60.0000         0.297719   
     93. A(B   7,B  11,B  10)           90.0000         0.297719   
     94. A(B   6,B  11,B  10)          120.0000         0.297719   
     95. A(B   7,B  11,B   9)          120.0000         0.297719   
     96. A(B   6,B  11,B   9)           90.0000         0.297719   
     97. D(B   6,B   1,B   0,B   2)    125.2644         0.010000   
     98. D(B   5,B   1,B   0,B   7)    -54.7356         0.010000   
     99. D(B   2,B   1,B   0,B   8)    -70.5288         0.010000   
    100. D(B   5,B   1,B   0,B   2)     70.5288         0.010000   
    101. D(B   5,B   1,B   0,B   8)      0.0000         0.010000   
    102. D(B   2,B   1,B   0,B   7)   -125.2644         0.010000   
    103. D(B   1,B   2,B   0,B   7)     70.5288         0.010000   
    104. D(B   3,B   2,B   1,B   0)     70.5288         0.010000   
    105. D(B   3,B   2,B   1,B   5)    -54.7356         0.010000   
    106. D(B   3,B   2,B   0,B   7)    -54.7356         0.010000   
    107. D(B   1,B   2,B   0,B   8)    125.2644         0.010000   
    108. D(B   0,B   2,B   1,B   6)    -70.5288         0.010000   
    109. D(B   3,B   2,B   0,B   1)   -125.2644         0.010000   
    110. D(B   4,B   2,B   0,B   1)    -70.5288         0.010000   
    111. D(B   4,B   2,B   1,B   0)    125.2644         0.010000   
    112. D(B   3,B   2,B   1,B   6)      0.0000         0.010000   
    113. D(B   3,B   2,B   0,B   8)      0.0000         0.010000   
    114. D(B   0,B   2,B   1,B   5)   -125.2644         0.010000   
    115. D(B  10,B   3,B   2,B   0)     54.7356         0.010000   
    116. D(B   8,B   3,B   2,B   4)   -125.2644         0.010000   
    117. D(B   4,B   3,B   2,B   0)    125.2644         0.010000   
    118. D(B   4,B   3,B   2,B   1)     70.5288         0.010000   
    119. D(B   8,B   3,B   2,B   1)    -54.7356         0.010000   
    120. D(B   8,B   3,B   2,B   0)      0.0000         0.010000   
    121. D(B   2,B   4,B   3,B   8)     70.5288         0.010000   
    122. D(B   3,B   4,B   2,B   1)   -125.2644         0.010000   
    123. D(B   5,B   4,B   2,B   3)    125.2644         0.010000   
    124. D(B   9,B   4,B   2,B   0)      0.0000         0.010000   
    125. D(B   5,B   4,B   2,B   0)     54.7356         0.010000   
    126. D(B   3,B   4,B   2,B   0)    -70.5288         0.010000   
    127. D(B   5,B   4,B   2,B   1)      0.0000         0.010000   
    128. D(B   5,B   4,B   3,B   8)      0.0000         0.010000   
    129. D(B   5,B   4,B   3,B   2)    -70.5288         0.010000   
    130. D(B   5,B   4,B   3,B  10)     54.7356         0.010000   
    131. D(B   2,B   4,B   3,B  10)    125.2644         0.010000   
    132. D(B   9,B   4,B   3,B   2)   -125.2644         0.010000   
    133. D(B   6,B   5,B   4,B   9)     70.5288         0.010000   
    134. D(B   6,B   5,B   4,B   2)    -54.7356         0.010000   
    135. D(B   1,B   5,B   4,B   3)     54.7356         0.010000   
    136. D(B   6,B   5,B   1,B   2)    125.2644         0.010000   
    137. D(B   9,B   5,B   1,B   0)      0.0000         0.010000   
    138. D(B   6,B   5,B   1,B   0)     70.5288         0.010000   
    139. D(B   4,B   5,B   1,B   6)   -125.2644         0.010000   
    140. D(B   4,B   5,B   1,B   2)      0.0000         0.010000   
    141. D(B   1,B   5,B   4,B   9)    125.2644         0.010000   
    142. D(B   6,B   5,B   4,B   3)      0.0000         0.010000   
    143. D(B   4,B   5,B   1,B   0)    -54.7356         0.010000   
    144. D(B   1,B   5,B   4,B   2)      0.0000         0.010000   
    145. D(B  11,B   6,B   5,B   1)   -125.2644         0.010000   
    146. D(B   1,B   6,B   5,B   4)     70.5288         0.010000   
    147. D(B   1,B   6,B   5,B   9)    125.2644         0.010000   
    148. D(B   7,B   6,B   5,B   4)      0.0000         0.010000   
    149. D(B  11,B   6,B   1,B   0)    -54.7356         0.010000   
    150. D(B   7,B   6,B   5,B   9)     54.7356         0.010000   
    151. D(B   7,B   6,B   1,B   5)    125.2644         0.010000   
    152. D(B   7,B   6,B   1,B   2)     54.7356         0.010000   
    153. D(B   7,B   6,B   5,B   1)    -70.5288         0.010000   
    154. D(B   5,B   6,B   1,B   0)   -125.2644         0.010000   
    155. D(B   7,B   6,B   1,B   0)      0.0000         0.010000   
    156. D(B   5,B   6,B   1,B   2)    -70.5288         0.010000   
    157. D(B   6,B   7,B   0,B   8)   -125.2644         0.010000   
    158. D(B   6,B   7,B   0,B   2)    -54.7356         0.010000   
    159. D(B   6,B   7,B   0,B   1)      0.0000         0.010000   
    160. D(B   8,B   7,B   6,B  11)     70.5288         0.010000   
    161. D(B   0,B   7,B   6,B   1)      0.0000         0.010000   
    162. D(B   0,B   7,B   6,B  11)    125.2644         0.010000   
    163. D(B   0,B   7,B   6,B   5)     54.7356         0.010000   
    164. D(B   8,B   7,B   6,B   5)      0.0000         0.010000   
    165. D(B  11,B   7,B   0,B   1)     54.7356         0.010000   
    166. D(B   8,B   7,B   0,B   2)     70.5288         0.010000   
    167. D(B   8,B   7,B   0,B   1)    125.2644         0.010000   
    168. D(B   8,B   7,B   6,B   1)    -54.7356         0.010000   
    169. D(B  10,B   8,B   7,B   0)   -125.2644         0.010000   
    170. D(B   3,B   8,B   7,B  11)     54.7356         0.010000   
    171. D(B   3,B   8,B   7,B   6)      0.0000         0.010000   
    172. D(B   0,B   8,B   7,B  11)    125.2644         0.010000   
    173. D(B   0,B   8,B   7,B   6)     70.5288         0.010000   
    174. D(B   7,B   8,B   3,B  10)    -70.5288         0.010000   
    175. D(B   7,B   8,B   3,B   4)      0.0000         0.010000   
    176. D(B   7,B   8,B   3,B   2)     54.7356         0.010000   
    177. D(B   0,B   8,B   3,B  10)   -125.2644         0.010000   
    178. D(B   0,B   8,B   3,B   4)    -54.7356         0.010000   
    179. D(B   0,B   8,B   3,B   2)      0.0000         0.010000   
    180. D(B  10,B   8,B   0,B   1)      0.0000         0.010000   
    181. D(B   7,B   8,B   0,B   2)   -125.2644         0.010000   
    182. D(B   3,B   8,B   7,B   0)    -70.5288         0.010000   
    183. D(B   7,B   8,B   0,B   1)    -70.5288         0.010000   
    184. D(B   3,B   8,B   0,B   7)    125.2644         0.010000   
    185. D(B   3,B   8,B   0,B   2)      0.0000         0.010000   
    186. D(B   3,B   8,B   0,B   1)     54.7356         0.010000   
    187. D(B  11,B   9,B   5,B   1)     54.7356         0.010000   
    188. D(B  10,B   9,B   5,B   6)    -54.7356         0.010000   
    189. D(B  10,B   9,B   5,B   4)     70.5288         0.010000   
    190. D(B  10,B   9,B   5,B   1)      0.0000         0.010000   
    191. D(B   4,B   9,B   5,B   6)   -125.2644         0.010000   
    192. D(B   4,B   9,B   5,B   1)    -70.5288         0.010000   
    193. D(B  11,B   9,B   4,B   2)      0.0000         0.010000   
    194. D(B  10,B   9,B   4,B   5)   -125.2644         0.010000   
    195. D(B  10,B   9,B   4,B   3)      0.0000         0.010000   
    196. D(B  10,B   9,B   4,B   2)    -54.7356         0.010000   
    197. D(B   5,B   9,B   4,B   3)    125.2644         0.010000   
    198. D(B   5,B   9,B   4,B   2)     70.5288         0.010000   
    199. D(B   8,B  10,B   9,B  11)    -70.5288         0.010000   
    200. D(B   8,B  10,B   9,B   4)     54.7356         0.010000   
    201. D(B   3,B  10,B   9,B  11)   -125.2644         0.010000   
    202. D(B   3,B  10,B   9,B   5)    -54.7356         0.010000   
    203. D(B   3,B  10,B   9,B   4)      0.0000         0.010000   
    204. D(B  11,B  10,B   8,B   0)    -54.7356         0.010000   
    205. D(B   9,B  10,B   8,B   7)     54.7356         0.010000   
    206. D(B   9,B  10,B   8,B   3)    -70.5288         0.010000   
    207. D(B   9,B  10,B   8,B   0)      0.0000         0.010000   
    208. D(B   3,B  10,B   8,B   7)    125.2644         0.010000   
    209. D(B   3,B  10,B   8,B   0)     70.5288         0.010000   
    210. D(B  11,B  10,B   3,B   2)      0.0000         0.010000   
    211. D(B   9,B  10,B   3,B   8)    125.2644         0.010000   
    212. D(B   9,B  10,B   3,B   4)      0.0000         0.010000   
    213. D(B   9,B  10,B   3,B   2)     54.7356         0.010000   
    214. D(B   8,B  10,B   9,B   5)      0.0000         0.010000   
    215. D(B   8,B  10,B   3,B   4)   -125.2644         0.010000   
    216. D(B   8,B  10,B   3,B   2)    -70.5288         0.010000   
    217. D(B  10,B  11,B   6,B   1)      0.0000         0.010000   
    218. D(B   9,B  11,B   6,B   7)   -125.2644         0.010000   
    219. D(B   9,B  11,B   6,B   5)      0.0000         0.010000   
    220. D(B   9,B  11,B   6,B   1)    -54.7356         0.010000   
    221. D(B   7,B  11,B   6,B   5)    125.2644         0.010000   
    222. D(B   6,B  11,B   7,B   0)    -70.5288         0.010000   
    223. D(B   7,B  11,B   6,B   1)     70.5288         0.010000   
    224. D(B   7,B  11,B  10,B   9)   -125.2644         0.010000   
    225. D(B   7,B  11,B  10,B   3)    -54.7356         0.010000   
    226. D(B   6,B  11,B  10,B   9)    -70.5288         0.010000   
    227. D(B   6,B  11,B  10,B   8)     54.7356         0.010000   
    228. D(B   7,B  11,B   9,B  10)     70.5288         0.010000   
    229. D(B   7,B  11,B   9,B   5)    -54.7356         0.010000   
    230. D(B   7,B  11,B   9,B   4)      0.0000         0.010000   
    231. D(B   6,B  11,B   9,B  10)    125.2644         0.010000   
    232. D(B   6,B  11,B   9,B   5)      0.0000         0.010000   
    233. D(B   6,B  11,B   9,B   4)     54.7356         0.010000   
    234. D(B   6,B  11,B  10,B   3)      0.0000         0.010000   
    235. D(B  10,B  11,B   7,B   0)     54.7356         0.010000   
    236. D(B   9,B  11,B   7,B   8)    -54.7356         0.010000   
    237. D(B   9,B  11,B   7,B   6)     70.5288         0.010000   
    238. D(B   7,B  11,B  10,B   8)      0.0000         0.010000   
    239. D(B   9,B  11,B   7,B   0)      0.0000         0.010000   
    240. D(B   6,B  11,B   7,B   8)   -125.2644         0.010000   
    -----------------------------------------------------------------

Number of atoms                         .... 12
Number of degrees of freedom            .... 240


         *************************************************************
         *                GEOMETRY OPTIMIZATION CYCLE   1            *
         *************************************************************
---------------------------------
CARTESIAN COORDINATES (ANGSTROEM)
---------------------------------
  B      0.000000   -1.272792   -1.272792
  B     -1.272792    0.000000   -1.272792
  B     -1.272792   -1.272792    0.000000
  B      0.000000   -1.272792    1.272792
  B     -1.272792    0.000000    1.272792
  B     -1.272792    1.272792    0.000000
  B      0.000000    1.272792   -1.272792
  B      1.272792    0.000000   -1.272792
  B      1.272792   -1.272792    0.000000
  B      0.000000    1.272792    1.272792
  B      1.272792    0.000000    1.272792
  B      1.272792    1.272792    0.000000

----------------------------
CARTESIAN COORDINATES (A.U.)
----------------------------
  NO LB      ZA    FRAG     MASS         X           Y           Z
   0 B     5.0000    0    10.810    0.000000   -2.405229   -2.405229
   1 B     5.0000    0    10.810   -2.405229    0.000000   -2.405229
   2 B     5.0000    0    10.810   -2.405229   -2.405229    0.000000
   3 B     5.0000    0    10.810    0.000000   -2.405229    2.405229
   4 B     5.0000    0    10.810   -2.405229    0.000000    2.405229
   5 B     5.0000    0    10.810   -2.405229    2.405229    0.000000
   6 B     5.0000    0    10.810    0.000000    2.405229   -2.405229
   7 B     5.0000    0    10.810    2.405229    0.000000   -2.405229
   8 B     5.0000    0    10.810    2.405229   -2.405229    0.000000
   9 B     5.0000    0    10.810    0.000000    2.405229    2.405229
  10 B     5.0000    0    10.810    2.405229    0.000000    2.405229
  11 B     5.0000    0    10.810    2.405229    2.405229    0.000000

--------------------------------
INTERNAL COORDINATES (ANGSTROEM)
--------------------------------
 B      0   0   0     0.000000000000     0.00000000     0.00000000
 B      1   0   0     1.800000005465     0.00000000     0.00000000
 B      1   2   0     1.800000005465    60.00000000     0.00000000
 B      3   1   2     1.800000005465    90.00000000   234.73561032
 B      3   1   2     1.800000005465   120.00000000   289.47122063
 B      2   1   3     1.800000005465   120.00000000    70.52877937
 B      2   1   3     1.800000005465    90.00000000   125.26438968
 B      1   2   3     1.800000005465    90.00000000   234.73561032
 B      1   2   3     1.800000005465   120.00000000   289.47122063
 B      5   3   1     1.800000005465   120.00000000     0.00000000
 B      4   3   1     1.800000005465   120.00000000    54.73561032
 B      7   2   1     1.800000005465   120.00000000   305.26438968

---------------------------
INTERNAL COORDINATES (A.U.)
---------------------------
 B      0   0   0     0.000000000000     0.00000000     0.00000000
 B      1   0   0     3.401507051385     0.00000000     0.00000000
 B      1   2   0     3.401507051385    60.00000000     0.00000000
 B      3   1   2     3.401507051385    90.00000000   234.73561032
 B      3   1   2     3.401507051385   120.00000000   289.47122063
 B      2   1   3     3.401507051385   120.00000000    70.52877937
 B      2   1   3     3.401507051385    90.00000000   125.26438968
 B      1   2   3     3.401507051385    90.00000000   234.73561032
 B      1   2   3     3.401507051385   120.00000000   289.47122063
 B      5   3   1     3.401507051385   120.00000000     0.00000000
 B      4   3   1     3.401507051385   120.00000000    54.73561032
 B      7   2   1     3.401507051385   120.00000000   305.26438968

---------------------
BASIS SET INFORMATION
---------------------
There are 1 groups of distinct atoms

 Group   1 Type B   : 7s4p1d contracted to 3s2p1d pattern {511/31/1}

Atom   0B    basis set group =>   1
Atom   1B    basis set group =>   1
Atom   2B    basis set group =>   1
Atom   3B    basis set group =>   1
Atom   4B    basis set group =>   1
Atom   5B    basis set group =>   1
Atom   6B    basis set group =>   1
Atom   7B    basis set group =>   1
Atom   8B    basis set group =>   1
Atom   9B    basis set group =>   1
Atom  10B    basis set group =>   1
Atom  11B    basis set group =>   1
---------------------------------
AUXILIARY/J BASIS SET INFORMATION
---------------------------------
There are 1 groups of distinct atoms

 Group   1 Type B   : 12s5p4d2f1g contracted to 6s4p3d1f1g pattern {711111/2111/211/2/1}

Atom   0B    basis set group =>   1
Atom   1B    basis set group =>   1
Atom   2B    basis set group =>   1
Atom   3B    basis set group =>   1
Atom   4B    basis set group =>   1
Atom   5B    basis set group =>   1
Atom   6B    basis set group =>   1
Atom   7B    basis set group =>   1
Atom   8B    basis set group =>   1
Atom   9B    basis set group =>   1
Atom  10B    basis set group =>   1
Atom  11B    basis set group =>   1


           ************************************************************
           *        Program running with 8 parallel MPI-processes     *
           *              working on a common directory               *
           ************************************************************
------------------------------------------------------------------------------
                             ORCA STARTUP CALCULATIONS
                           -- RI-GTO INTEGRALS CHOSEN --
------------------------------------------------------------------------------
------------------------------------------------------------------------------
                   ___                                                        
                  /   \      - P O W E R E D   B Y -                         
                 /     \                                                     
                 |  |  |   _    _      __       _____    __    __             
                 |  |  |  | |  | |    /  \     |  _  \  |  |  /  |          
                  \  \/   | |  | |   /    \    | | | |  |  | /  /          
                 / \  \   | |__| |  /  /\  \   | |_| |  |  |/  /          
                |  |  |   |  __  | /  /__\  \  |    /   |      \           
                |  |  |   | |  | | |   __   |  |    \   |  |\   \          
                \     /   | |  | | |  |  |  |  | |\  \  |  | \   \       
                 \___/    |_|  |_| |__|  |__|  |_| \__\ |__|  \__/        
                                                                              
                      - O R C A' S   B I G   F R I E N D -                    
                                      &                                       
                       - I N T E G R A L  F E E D E R -                       
                                                                              
 v1 FN, 2020, v2 2021, v3 2022-2024                                           
------------------------------------------------------------------------------


----------------------
SHARK INTEGRAL PACKAGE
----------------------

Number of atoms                             ...     12
Number of basis functions                   ...    168
Number of shells                            ...     72
Maximum angular momentum                    ...      2
Integral batch strategy                     ... SHARK/LIBINT Hybrid
RI-J (if used) integral strategy            ... SPLIT-RIJ (Revised 2003 algorithm where possible)
Printlevel                                  ...      1
Contraction scheme used                     ... SEGMENTED contraction
Prescreening option                         ... SCHWARTZ
   Thresh                                   ... 2.500e-11
   Tcut                                     ... 2.500e-12
   Tpresel                                  ... 2.500e-12 
Coulomb Range Separation                    ... NOT USED
Exchange Range Separation                   ... NOT USED
Multipole approximations                    ... NOT USED
Finite Nucleus Model                        ... NOT USED
CABS basis                                  ... NOT available
Auxiliary Coulomb fitting basis             ... AVAILABLE
   # of basis functions in Aux-J            ...    588
   # of shells in Aux-J                     ...    180
   Maximum angular momentum in Aux-J        ...      4
Auxiliary J/K fitting basis                 ... NOT available
Auxiliary Correlation fitting basis         ... NOT available
Auxiliary 'external' fitting basis          ... NOT available

Checking pre-screening integrals            ... done (  0.0 sec) Dimension = 72
   => SHARK Basis and OBASIS are compatible. Storing Pre-screening
Shell pair information
Shell pair cut-off parameter TPreSel        ...   2.5e-12
Total number of shell pairs                 ...      2628
Shell pairs after pre-screening             ...      2586
Total number of primitive shell pairs       ...     10596
Primitive shell pairs kept                  ...      8094
          la=0 lb=0:    624 shell pairs
          la=1 lb=0:    864 shell pairs
          la=1 lb=1:    300 shell pairs
          la=2 lb=0:    432 shell pairs
          la=2 lb=1:    288 shell pairs
          la=2 lb=2:     78 shell pairs

Checking whether 4 symmetric matrices of dimension 168 fit in memory
:Max Core in MB      =   2500.00
 MB in use           =      6.94
 MB left             =   2493.06
 MB needed           =      0.43
 Data fit in memory  = YES
Calculating RI/J V-Matrix + Cholesky decomp.... done (  0.0 sec)
Calculating Nuclear repulsion               ... done (  0.0 sec) ENN=    362.645785304892 Eh

Diagonalization of the overlap matrix:
Smallest eigenvalue                        ... 5.382e-05
Time for diagonalization                   ...    0.003 sec
Threshold for overlap eigenvalues          ... 1.000e-07
Number of eigenvalues below threshold      ... 0
Time for construction of square roots      ...    0.005 sec
Total time needed                          ...    0.013 sec

-------------------
DFT GRID GENERATION
-------------------

General Integration Accuracy     IntAcc      ... 4.388
Radial Grid Type                 RadialGrid  ... OptM3 with GC (2021)
Angular Grid (max. ang.)         AngularGrid ... 4 (Lebedev-302)
Angular grid pruning method      GridPruning ... 4 (adaptive)
Weight generation scheme         WeightScheme... mBecke (2022)
Basis function cutoff            BFCut       ... 1.0000e-11
Integration weight cutoff        WCut        ... 1.0000e-14
Partially contracted basis set               ... off
Rotationally invariant grid construction     ... off
Angular grids for H and He will be reduced by one unit

Total number of grid points                  ...    70380
Total number of batches                      ...     1108
Average number of points per batch           ...       63
Average number of grid points per atom       ...     5865
Grids setup in   0.8 sec
Initializing property integral containers    ... done (  0.0 sec)

SHARK setup successfully completed in   1.0 seconds

Maximum memory used throughout the entire STARTUP-calculation: 19.8 MB


           ************************************************************
           *        Program running with 8 parallel MPI-processes     *
           *              working on a common directory               *
           ************************************************************
-------------------------------------------------------------------------------
                                 ORCA GUESS
                   Start orbitals & Density for SCF / CASSCF
-------------------------------------------------------------------------------

------------
SCF SETTINGS
------------
Hamiltonian:
 Density Functional     Method          .... DFT(GTOs)
 Exchange Functional    Exchange        .... B88
   X-Alpha parameter    XAlpha          ....  0.666667
   Becke's b parameter  XBeta           ....  0.004200
 Correlation Functional Correlation     .... P86
 LDA part of GGA corr.  LDAOpt          .... PW91-LDA
 Gradients option       PostSCFGGA      .... off
   NL short-range parameter             ....  4.400000
 RI-approximation to the Coulomb term is turned on
   Number of AuxJ basis functions       .... 588


General Settings:
 Integral files         IntName         .... cuboctahedron_nn1.80
 Hartree-Fock type      HFTyp           .... RHF
 Total Charge           Charge          ....    0
 Multiplicity           Mult            ....    1
 Number of Electrons    NEL             ....   60
 Basis Dimension        Dim             ....  168
 Nuclear Repulsion      ENuc            ....    362.6457853049 Eh

Convergence Acceleration:
 AO-DIIS                CNVDIIS         .... on
   Start iteration      DIISMaxIt       ....     0
   Startup error        DIISStart       ....  0.200000
   # of expansion vecs  DIISMaxEq       ....     5
   Bias factor          DIISBfac        ....   1.050
   Max. coefficient     DIISMaxC        ....  10.000
 MO-DIIS                CNVKDIIS        .... off
 Trust-Rad. Augm. Hess. CNVTRAH         .... auto
   Auto Start mean grad. ratio tolernc. ....  1.125000
   Auto Start start iteration           ....    50
   Auto Start num. interpolation iter.  ....    10
   Max. Number of Micro iterations      ....    24
   Max. Number of Macro iterations      .... Maxiter - #DIIS iter
   Number of Davidson start vectors     ....     2
   Converg. threshold    (grad. norm)   ....   1.000e-05
   Grad. Scal. Fac. for Micro threshold ....   0.100
   Minimum threshold for Micro iter.    ....   1.000e-02
   NR start threshold (gradient norm)   ....   1.000e-04
   Initial trust radius                 ....   0.400
   Minimum AH scaling param. (alpha)    ....   1.000
   Maximum AH scaling param. (alpha)    .... 1000.000
   Quad. conv. algorithm                .... NR
   White noise on init. David. guess    .... on
   Maximum white noise                  ....   0.010
   Pseudo random numbers                .... off
   Inactive MOs                         .... canonical
   Orbital update algorithm             .... Taylor
   Preconditioner                       .... Diag
   Full preconditioner red. dimension   ....   250
 SOSCF                 CNVSOSCF           .... on
   Start iteration     SOSCFMaxIt         ....   150
   Startup grad/error  SOSCFStart         ....  0.001000
   Hessian update      SOSCFHessUp        .... L-BFGS
   Autom. constraints  SOSCFAutoConstrain .... off
 Level Shifting         CNVShift        .... on
   Level shift para.    LevelShift      ....    0.2500
   Turn off err/grad.   ShiftErr        ....    0.0000
 Zerner damping         CNVZerner       .... off
 Static damping         CNVDamp         .... on
   Fraction old density DampFac         ....    0.8500
   Max. Damping (<1)    DampMax         ....    0.9800
   Min. Damping (>=0)   DampMin         ....    0.0000
   Turn off err/grad.   DampErr         ....    0.0300

SCF Procedure:
 Maximum # iterations   MaxIter         ....   125
 SCF integral mode      SCFMode         .... Direct
   Integral package                     .... SHARK and LIBINT hybrid scheme
 Reset frequency        DirectResetFreq ....    20
 Integral Threshold     Thresh          ....  2.500e-11 Eh
 Primitive CutOff       TCut            ....  2.500e-12 Eh

Convergence Tolerance:
 Convergence Check Mode ConvCheckMode   .... Total+1el-Energy
 Convergence forced     ConvForced      .... 0
 Energy Change          TolE            ....  1.000e-08 Eh
 1-El. energy change                    ....  1.000e-05 Eh
 Orbital Gradient       TolG            ....  1.000e-05
 Orbital Rotation angle TolX            ....  1.000e-05
 DIIS Error             TolErr          ....  5.000e-07

------------------------------
INITIAL GUESS: MODEL POTENTIAL
------------------------------
Loading Hartree-Fock densities                     ... done
Calculating cut-offs                               ... done
Initializing the effective Hamiltonian             ... done
Setting up the integral package (SHARK)            ... done
Starting the Coulomb interaction                   ... done (   0.1 sec)
Making the grid                                    ... done (   0.3 sec)
Mapping shells                                     ... done
Starting the XC term evaluation                    ... done (   0.0 sec)
  promolecular density results
     # of electrons  =     60.004293405
     EX              =    -45.742011888
     EC              =     -2.021907166
     EX+EC           =    -47.763919054
Transforming the Hamiltonian                       ... done (   0.0 sec)
Diagonalizing the Hamiltonian                      ... done (   0.0 sec)
Back transforming the eigenvectors                 ... done (   0.0 sec)
Now organizing SCF variables                       ... done
                      ------------------
                      INITIAL GUESS DONE (   0.4 sec)
                      ------------------
             **** ENERGY FILE WAS UPDATED (cuboctahedron_nn1.80.en.tmp) ****
Finished Guess after   0.9 sec
Maximum memory used throughout the entire GUESS-calculation: 9.8 MB


           ************************************************************
           *        Program running with 8 parallel MPI-processes     *
           *              working on a common directory               *
           ************************************************************

-------------------------------------------------------------------------------------------
                                      ORCA LEAN-SCF
                              memory conserving SCF solver
-------------------------------------------------------------------------------------------

----------------------------------------D-I-I-S--------------------------------------------
Iteration    Energy (Eh)           Delta-E    RMSDP     MaxDP     DIISErr   Damp  Time(sec)
-------------------------------------------------------------------------------------------
               ***  Starting incremental Fock matrix formation  ***
    1    -297.0595359636724879     0.00e+00  1.46e-02  1.34e-01  8.78e-02  0.850   0.3
Warning: op=0 Small HOMO/LUMO gap (  -0.030) - skipping pre-diagonalization
         Will do a full diagonalization
    2    -297.1463679338444308    -8.68e-02  8.92e-03  3.34e-02  6.39e-02  0.850   0.3
                               ***Turning on AO-DIIS***
    3    -297.2012658582377753    -5.49e-02  6.96e-03  4.76e-02  3.92e-02  0.850   0.3
    4    -297.2332372783114351    -3.20e-02  4.62e-03  3.95e-02  2.80e-02  0.850   0.4
    5    -297.2548478409643167    -2.16e-02  2.00e-02  1.83e-01  2.17e-02  0.000   0.4
    6    -297.3471632810883420    -9.23e-02  4.20e-03  2.46e-02  6.83e-03  0.000   0.4
    7    -297.3490134199809063    -1.85e-03  2.85e-03  1.90e-02  2.04e-03  0.000   0.4
    8    -297.3492613438525041    -2.48e-04  8.50e-04  6.07e-03  1.16e-03  0.000   0.4
                              *** Initializing SOSCF ***
---------------------------------------S-O-S-C-F--------------------------------------
Iteration    Energy (Eh)           Delta-E    RMSDP     MaxDP     MaxGrad    Time(sec)
--------------------------------------------------------------------------------------
    9    -297.3493126801812423    -5.13e-05  5.57e-04  3.76e-03  4.30e-04     0.5
               *** Restarting incremental Fock matrix formation ***
   10    -297.3493264099683984    -1.37e-05  4.49e-04  2.64e-03  2.87e-04     0.4
   11    -297.3493384320352106    -1.20e-05  1.88e-03  1.22e-02  3.59e-04     0.3
   12    -297.3493682010398516    -2.98e-05  2.15e-03  1.30e-02  4.52e-04     0.3
   13    -297.3493914035911985    -2.32e-05  3.46e-03  2.47e-02  3.90e-04     0.3
   14    -297.3494282476967783    -3.68e-05  3.89e-03  2.69e-02  4.39e-04     0.3
   15    -297.3494679683515187    -3.97e-05  3.29e-03  1.98e-02  3.36e-04     0.3
   16    -297.3494924643518971    -2.45e-05  2.18e-03  1.31e-02  3.39e-04     0.3
   17    -297.3495017886353935    -9.32e-06  4.16e-04  2.96e-03  3.11e-04     0.3
   18    -297.3495111154776396    -9.33e-06  4.02e-04  2.81e-03  1.24e-04     0.3
   19    -297.3495138996891001    -2.78e-06  4.81e-04  2.50e-03  1.07e-04     0.3
   20    -297.3495147387712905    -8.39e-07  7.37e-05  4.07e-04  7.40e-05     0.3
   21    -297.3495153891564087    -6.50e-07  1.11e-04  7.05e-04  3.87e-05     0.3
   22    -297.3495156309294316    -2.42e-07  1.73e-04  1.06e-03  5.01e-05     0.3
   23    -297.3495159548481297    -3.24e-07  3.61e-04  2.21e-03  4.94e-05     0.3
   24    -297.3495161840065748    -2.29e-07  5.00e-04  2.73e-03  9.47e-05     0.3
   25    -297.3495169750732430    -7.91e-07  1.90e-04  1.08e-03  5.34e-05     0.4
   26    -297.3495174881826415    -5.13e-07  5.96e-04  3.25e-03  5.98e-05     0.4
   27    -297.3495178593569790    -3.71e-07  4.25e-04  2.61e-03  1.02e-04     0.3
   28    -297.3495179953175693    -1.36e-07  2.12e-04  1.46e-03  1.18e-04     0.4
   29    -297.3495182414352485    -2.46e-07  1.25e-04  7.27e-04  5.94e-05     0.4
               *** Restarting incremental Fock matrix formation ***
   30    -297.3495183643414066    -1.23e-07  1.43e-04  8.74e-04  2.14e-05     0.4
   31    -297.3495184209891704    -5.66e-08  1.39e-04  9.41e-04  1.89e-05     0.3
   32    -297.3495183609562673     6.00e-08  8.30e-05  5.30e-04  5.45e-05     0.4
   33    -297.3495184448026976    -8.38e-08  1.05e-05  5.01e-05  5.49e-06     0.3
   34    -297.3495184473276822    -2.52e-09  1.52e-05  9.37e-05  2.57e-06     0.4
                 **** Energy Check signals convergence ****

               *****************************************************
               *                     SUCCESS                       *
               *           SCF CONVERGED AFTER  34 CYCLES          *
               *****************************************************

             **** ENERGY FILE WAS UPDATED (cuboctahedron_nn1.80.en.tmp) ****

----------------
TOTAL SCF ENERGY
----------------

Total Energy       :       -297.34951844846364 Eh           -8091.29175 eV

Components:
Nuclear Repulsion  :        362.64578530489166 Eh            9868.09350 eV
Electronic Energy  :       -659.99530375335530 Eh          -17959.38525 eV
One Electron Energy:      -1112.62072858853799 Eh          -30275.94922 eV
Two Electron Energy:        452.62542483518268 Eh           12316.56397 eV

Virial components:
Potential Energy   :       -588.61288316765263 Eh          -16016.97084 eV
Kinetic Energy     :        291.26336471918898 Eh            7925.67909 eV
Virial Ratio       :          2.02089570631426

DFT components:
N(Alpha)           :       30.000165176796 electrons
N(Beta)            :       30.000165176796 electrons
N(Total)           :       60.000330353591 electrons
E(X)               :      -45.915204362940 Eh       
E(C)               :       -2.049340718513 Eh       
E(XC)              :      -47.964545081453 Eh       

---------------
SCF CONVERGENCE
---------------

  Last Energy change         ...    2.5250e-09  Tolerance :   1.0000e-08
  Last MAX-Density change    ...    9.3664e-05  Tolerance :   1.0000e-07
  Last RMS-Density change    ...    1.5237e-05  Tolerance :   5.0000e-09
  Last DIIS Error            ...    4.2966e-04  Tolerance :   5.0000e-07
  Last Orbital Gradient      ...    2.5737e-06  Tolerance :   1.0000e-05
  Last Orbital Rotation      ...    1.0103e-04  Tolerance :   1.0000e-05


----------------
ORBITAL ENERGIES
----------------

  NO   OCC          E(Eh)            E(eV) 
   0   2.0000      -6.633478      -180.5061 
   1   2.0000      -6.633474      -180.5060 
   2   2.0000      -6.633471      -180.5059 
   3   2.0000      -6.633393      -180.5038 
   4   2.0000      -6.609524      -179.8543 
   5   2.0000      -6.609434      -179.8518 
   6   2.0000      -6.609433      -179.8518 
   7   2.0000      -6.609428      -179.8517 
   8   2.0000      -6.609427      -179.8516 
   9   2.0000      -6.609422      -179.8515 
  10   2.0000      -6.609338      -179.8492 
  11   2.0000      -6.609268      -179.8473 
  12   2.0000      -0.703168       -19.1342 
  13   2.0000      -0.581582       -15.8257 
  14   2.0000      -0.578122       -15.7315 
  15   2.0000      -0.578121       -15.7315 
  16   2.0000      -0.449348       -12.2274 
  17   2.0000      -0.448659       -12.2086 
  18   2.0000      -0.448658       -12.2086 
  19   2.0000      -0.408029       -11.1030 
  20   2.0000      -0.400227       -10.8907 
  21   2.0000      -0.376857       -10.2548 
  22   2.0000      -0.325019        -8.8442 
  23   2.0000      -0.280313        -7.6277 
  24   2.0000      -0.279371        -7.6021 
  25   2.0000      -0.279371        -7.6021 
  26   2.0000      -0.225841        -6.1454 
  27   2.0000      -0.225813        -6.1447 
  28   2.0000      -0.225811        -6.1446 
  29   2.0000      -0.201161        -5.4739 
  30   0.0000      -0.208600        -5.6763 
  31   0.0000      -0.208599        -5.6763 
  32   0.0000      -0.153199        -4.1687 
  33   0.0000      -0.148324        -4.0361 
  34   0.0000      -0.148323        -4.0361 
  35   0.0000      -0.110057        -2.9948 
  36   0.0000      -0.109918        -2.9910 
  37   0.0000      -0.109818        -2.9883 
  38   0.0000      -0.109818        -2.9883 
  39   0.0000      -0.106551        -2.8994 
  40   0.0000       0.034380         0.9355 
*Only the first 10 virtual orbitals were printed.

                    ********************************
                    * MULLIKEN POPULATION ANALYSIS *
                    ********************************

-----------------------
MULLIKEN ATOMIC CHARGES
-----------------------
   0 B :   -0.044701
   1 B :    0.089411
   2 B :   -0.044709
   3 B :   -0.044701
   4 B :    0.089407
   5 B :   -0.044712
   6 B :   -0.044702
   7 B :    0.089405
   8 B :   -0.044701
   9 B :   -0.044700
  10 B :    0.089409
  11 B :   -0.044704
Sum of atomic charges:    0.0000000

--------------------------------
MULLIKEN REDUCED ORBITAL CHARGES
--------------------------------
  0 B s       :     2.988254  s :     2.988254
      pz      :     0.688810  p :     2.008417
      px      :     0.706341
      py      :     0.613266
      dz2     :     0.012081  d :     0.048031
      dxz     :     0.008057
      dyz     :     0.009317
      dx2y2   :     0.012899
      dxy     :     0.005678

  1 B s       :     2.814045  s :     2.814045
      pz      :     0.659616  p :     2.038841
      px      :     0.659620
      py      :     0.719605
      dz2     :     0.011614  d :     0.057704
      dxz     :     0.008549
      dyz     :     0.012397
      dx2y2   :     0.012748
      dxy     :     0.012397

  2 B s       :     2.988276  s :     2.988276
      pz      :     0.706339  p :     2.008402
      px      :     0.688805
      py      :     0.613258
      dz2     :     0.013803  d :     0.048031
      dxz     :     0.008057
      dyz     :     0.005678
      dx2y2   :     0.011177
      dxy     :     0.009317

  3 B s       :     2.988273  s :     2.988273
      pz      :     0.688802  p :     2.008397
      px      :     0.706338
      py      :     0.613257
      dz2     :     0.012081  d :     0.048031
      dxz     :     0.008057
      dyz     :     0.009317
      dx2y2   :     0.012899
      dxy     :     0.005678

  4 B s       :     2.814046  s :     2.814046
      pz      :     0.659622  p :     2.038843
      px      :     0.659619
      py      :     0.719602
      dz2     :     0.011614  d :     0.057704
      dxz     :     0.008549
      dyz     :     0.012397
      dx2y2   :     0.012748
      dxy     :     0.012397

  5 B s       :     2.988270  s :     2.988270
      pz      :     0.706341  p :     2.008411
      px      :     0.688809
      py      :     0.613262
      dz2     :     0.013803  d :     0.048031
      dxz     :     0.008057
      dyz     :     0.005678
      dx2y2   :     0.011177
      dxy     :     0.009317

  6 B s       :     2.988268  s :     2.988268
      pz      :     0.688804  p :     2.008403
      px      :     0.706339
      py      :     0.613260
      dz2     :     0.012081  d :     0.048031
      dxz     :     0.008057
      dyz     :     0.009317
      dx2y2   :     0.012899
      dxy     :     0.005678

  7 B s       :     2.814045  s :     2.814045
      pz      :     0.659626  p :     2.038846
      px      :     0.659617
      py      :     0.719602
      dz2     :     0.011614  d :     0.057704
      dxz     :     0.008549
      dyz     :     0.012397
      dx2y2   :     0.012748
      dxy     :     0.012397

  8 B s       :     2.988262  s :     2.988262
      pz      :     0.706340  p :     2.008409
      px      :     0.688806
      py      :     0.613263
      dz2     :     0.013803  d :     0.048031
      dxz     :     0.008057
      dyz     :     0.005678
      dx2y2   :     0.011177
      dxy     :     0.009317

  9 B s       :     2.988259  s :     2.988259
      pz      :     0.688808  p :     2.008411
      px      :     0.706341
      py      :     0.613262
      dz2     :     0.012081  d :     0.048031
      dxz     :     0.008057
      dyz     :     0.009317
      dx2y2   :     0.012899
      dxy     :     0.005678

 10 B s       :     2.814041  s :     2.814041
      pz      :     0.659617  p :     2.038846
      px      :     0.659622
      py      :     0.719607
      dz2     :     0.011614  d :     0.057704
      dxz     :     0.008549
      dyz     :     0.012397
      dx2y2   :     0.012748
      dxy     :     0.012397

 11 B s       :     2.988281  s :     2.988281
      pz      :     0.706337  p :     2.008392
      px      :     0.688802
      py      :     0.613254
      dz2     :     0.013803  d :     0.048031
      dxz     :     0.008057
      dyz     :     0.005678
      dx2y2   :     0.011177
      dxy     :     0.009317



                     *******************************
                     * LOEWDIN POPULATION ANALYSIS *
                     *******************************

----------------------
LOEWDIN ATOMIC CHARGES
----------------------
   0 B :   -0.027499
   1 B :    0.055002
   2 B :   -0.027502
   3 B :   -0.027497
   4 B :    0.054992
   5 B :   -0.027498
   6 B :   -0.027502
   7 B :    0.054988
   8 B :   -0.027495
   9 B :   -0.027498
  10 B :    0.054999
  11 B :   -0.027491

-------------------------------
LOEWDIN REDUCED ORBITAL CHARGES
-------------------------------
  0 B s       :     2.743344  s :     2.743344
      pz      :     0.757707  p :     2.178730
      px      :     0.773724
      py      :     0.647299
      dz2     :     0.025611  d :     0.105424
      dxz     :     0.022808
      dyz     :     0.013660
      dx2y2   :     0.025837
      dxy     :     0.017509

  1 B s       :     2.670158  s :     2.670158
      pz      :     0.680003  p :     2.140132
      px      :     0.680009
      py      :     0.780120
      dz2     :     0.023717  d :     0.134708
      dxz     :     0.012138
      dyz     :     0.037197
      dx2y2   :     0.024458
      dxy     :     0.037197

  2 B s       :     2.743349  s :     2.743349
      pz      :     0.773723  p :     2.178728
      px      :     0.757709
      py      :     0.647296
      dz2     :     0.027105  d :     0.105424
      dxz     :     0.022808
      dyz     :     0.017509
      dx2y2   :     0.024343
      dxy     :     0.013660

  3 B s       :     2.743347  s :     2.743347
      pz      :     0.757708  p :     2.178725
      px      :     0.773722
      py      :     0.647295
      dz2     :     0.025611  d :     0.105424
      dxz     :     0.022808
      dyz     :     0.013660
      dx2y2   :     0.025837
      dxy     :     0.017509

  4 B s       :     2.670161  s :     2.670161
      pz      :     0.680014  p :     2.140139
      px      :     0.680007
      py      :     0.780118
      dz2     :     0.023717  d :     0.134708
      dxz     :     0.012138
      dyz     :     0.037197
      dx2y2   :     0.024458
      dxy     :     0.037197

  5 B s       :     2.743344  s :     2.743344
      pz      :     0.773724  p :     2.178730
      px      :     0.757707
      py      :     0.647299
      dz2     :     0.027105  d :     0.105424
      dxz     :     0.022808
      dyz     :     0.017509
      dx2y2   :     0.024343
      dxy     :     0.013660

  6 B s       :     2.743348  s :     2.743348
      pz      :     0.757709  p :     2.178729
      px      :     0.773723
      py      :     0.647297
      dz2     :     0.025611  d :     0.105424
      dxz     :     0.022808
      dyz     :     0.013660
      dx2y2   :     0.025837
      dxy     :     0.017509

  7 B s       :     2.670161  s :     2.670161
      pz      :     0.680015  p :     2.140142
      px      :     0.680008
      py      :     0.780119
      dz2     :     0.023717  d :     0.134708
      dxz     :     0.012138
      dyz     :     0.037197
      dx2y2   :     0.024458
      dxy     :     0.037197

  8 B s       :     2.743343  s :     2.743343
      pz      :     0.773724  p :     2.178728
      px      :     0.757706
      py      :     0.647298
      dz2     :     0.027105  d :     0.105424
      dxz     :     0.022808
      dyz     :     0.017509
      dx2y2   :     0.024343
      dxy     :     0.013660

  9 B s       :     2.743344  s :     2.743344
      pz      :     0.757706  p :     2.178729
      px      :     0.773724
      py      :     0.647299
      dz2     :     0.025611  d :     0.105424
      dxz     :     0.022808
      dyz     :     0.013660
      dx2y2   :     0.025837
      dxy     :     0.017509

 10 B s       :     2.670159  s :     2.670159
      pz      :     0.680004  p :     2.140135
      px      :     0.680010
      py      :     0.780121
      dz2     :     0.023717  d :     0.134708
      dxz     :     0.012138
      dyz     :     0.037197
      dx2y2   :     0.024458
      dxy     :     0.037197

 11 B s       :     2.743347  s :     2.743347
      pz      :     0.773722  p :     2.178720
      px      :     0.757705
      py      :     0.647293
      dz2     :     0.027105  d :     0.105424
      dxz     :     0.022808
      dyz     :     0.017509
      dx2y2   :     0.024343
      dxy     :     0.013660



                      *****************************
                      * MAYER POPULATION ANALYSIS *
                      *****************************

  NA   - Mulliken gross atomic population
  ZA   - Total nuclear charge
  QA   - Mulliken gross atomic charge
  VA   - Mayer's total valence
  BVA  - Mayer's bonded valence
  FA   - Mayer's free valence

  ATOM       NA         ZA         QA         VA         BVA        FA
  0 B      5.0447     5.0000    -0.0447     3.7290     3.7290     0.0000
  1 B      4.9106     5.0000     0.0894     3.9353     3.9353     0.0000
  2 B      5.0447     5.0000    -0.0447     3.7290     3.7290     0.0000
  3 B      5.0447     5.0000    -0.0447     3.7290     3.7290     0.0000
  4 B      4.9106     5.0000     0.0894     3.9353     3.9353     0.0000
  5 B      5.0447     5.0000    -0.0447     3.7290     3.7290     0.0000
  6 B      5.0447     5.0000    -0.0447     3.7290     3.7290     0.0000
  7 B      4.9106     5.0000     0.0894     3.9353     3.9353     0.0000
  8 B      5.0447     5.0000    -0.0447     3.7290     3.7290     0.0000
  9 B      5.0447     5.0000    -0.0447     3.7290     3.7290     0.0000
 10 B      4.9106     5.0000     0.0894     3.9353     3.9353     0.0000
 11 B      5.0447     5.0000    -0.0447     3.7290     3.7290     0.0000

  Mayer bond orders larger than 0.100000
B(  0-B ,  1-B ) :   0.7472 B(  0-B ,  2-B ) :   0.6389 B(  0-B ,  3-B ) :   0.3110 
B(  0-B ,  6-B ) :   0.1262 B(  0-B ,  7-B ) :   0.7472 B(  0-B ,  8-B ) :   0.6389 
B(  0-B ,  9-B ) :   0.1935 B(  1-B ,  2-B ) :   0.7472 B(  1-B ,  4-B ) :   0.2355 
B(  1-B ,  5-B ) :   0.7472 B(  1-B ,  6-B ) :   0.7471 B(  1-B ,  7-B ) :   0.2355 
B(  1-B , 10-B ) :   0.1679 B(  2-B ,  3-B ) :   0.6389 B(  2-B ,  4-B ) :   0.7471 
B(  2-B ,  5-B ) :   0.1262 B(  2-B ,  8-B ) :   0.3110 B(  2-B , 11-B ) :   0.1935 
B(  3-B ,  4-B ) :   0.7472 B(  3-B ,  6-B ) :   0.1935 B(  3-B ,  8-B ) :   0.6389 
B(  3-B ,  9-B ) :   0.1262 B(  3-B , 10-B ) :   0.7471 B(  4-B ,  5-B ) :   0.7471 
B(  4-B ,  7-B ) :   0.1679 B(  4-B ,  9-B ) :   0.7472 B(  4-B , 10-B ) :   0.2355 
B(  5-B ,  6-B ) :   0.6389 B(  5-B ,  8-B ) :   0.1935 B(  5-B ,  9-B ) :   0.6389 
B(  5-B , 11-B ) :   0.3110 B(  6-B ,  7-B ) :   0.7472 B(  6-B ,  9-B ) :   0.3110 
B(  6-B , 11-B ) :   0.6389 B(  7-B ,  8-B ) :   0.7472 B(  7-B , 10-B ) :   0.2355 
B(  7-B , 11-B ) :   0.7472 B(  8-B , 10-B ) :   0.7472 B(  8-B , 11-B ) :   0.1262 
B(  9-B , 10-B ) :   0.7472 B(  9-B , 11-B ) :   0.6389 B( 10-B , 11-B ) :   0.7471 


-------
TIMINGS
-------

Total SCF time: 0 days 0 hours 0 min 12 sec 

Total time                  ....      12.758 sec
Sum of individual times     ....      12.312 sec  ( 96.5%)

SCF preparation             ....       0.449 sec  (  3.5%)
Fock matrix formation       ....      10.534 sec  ( 82.6%)
  Startup                   ....       0.021 sec  (  0.2% of F)
  Split-RI-J                ....       3.312 sec  ( 31.4% of F)
  XC integration            ....       6.979 sec  ( 66.2% of F)
    XC Preparation          ....       0.000 sec  (  0.0% of XC)
    Basis function eval.    ....       1.504 sec  ( 21.5% of XC)
    Density eval.           ....       1.155 sec  ( 16.6% of XC)
    XC-Functional eval.     ....       0.188 sec  (  2.7% of XC)
    XC-Potential eval.      ....       1.603 sec  ( 23.0% of XC)
Diagonalization             ....       0.000 sec  (  0.0%)
Density matrix formation    ....       0.212 sec  (  1.7%)
Total Energy calculation    ....       0.106 sec  (  0.8%)
Population analysis         ....       0.033 sec  (  0.3%)
Orbital Transformation      ....       0.033 sec  (  0.3%)
Orbital Orthonormalization  ....       0.000 sec  (  0.0%)
DIIS solution               ....       0.313 sec  (  2.5%)
SOSCF solution              ....       0.633 sec  (  5.0%)
Finished LeanSCF after  12.8 sec

Maximum memory used throughout the entire LEANSCF-calculation: 10.2 MB


-------------------------------------------------------------------------------
                          DFT DISPERSION CORRECTION                            
                                                                               
                              DFTD3 V3.1  Rev 1                                
                          USING Becke-Johnson damping                          
-------------------------------------------------------------------------------
The BP86 functional is recognized
Active option DFTDOPT                   ...         4   

molecular C6(AA) [au] = 4319.493338 


            DFT-D V3
 parameters
 s6 scaling factor         :     1.0000 
 a1 scaling factor         :     0.3946 
 s8 scaling factor         :     3.2822 
 a2 scaling factor         :     4.8516 
 ad hoc parameters k1-k3   :    16.0000     1.3333    -4.0000 

 Edisp/kcal,au: -24.370368323817  -0.038836649854 
 E6   /kcal   :  -6.907799354 
 E8   /kcal   : -17.462568970 
 % E8         :  71.654924282 

-------------------------   ----------------
Dispersion correction           -0.038836650
-------------------------   ----------------


-------------------------   --------------------
FINAL SINGLE POINT ENERGY      -297.388355098318
-------------------------   --------------------



           ************************************************************
           *        Program running with 8 parallel MPI-processes     *
           *              working on a common directory               *
           ************************************************************
------------------------------------------------------------------------------
                         ORCA SCF GRADIENT CALCULATION
------------------------------------------------------------------------------

Nuc. rep. gradient        (SHARK) ... done (  0.0 sec)
HCore & Overlap gradient  (SHARK) ... done (  0.1 sec)
Split-RIJ-J gradient      (SHARK) ... done (  0.6 sec)
XC gradient                       ... done (  1.2 sec)
Dispersion correction             ... done (  0.1 sec)

-------------------
DISPERSION GRADIENT
-------------------

   1   B   :   -0.000000000    0.001451402    0.001451402
   2   B   :    0.001451402   -0.000000000    0.001451402
   3   B   :    0.001451402    0.001451402   -0.000000000
   4   B   :   -0.000000000    0.001451402   -0.001451402
   5   B   :    0.001451402   -0.000000000   -0.001451402
   6   B   :    0.001451402   -0.001451402   -0.000000000
   7   B   :   -0.000000000   -0.001451402    0.001451402
   8   B   :   -0.001451402   -0.000000000    0.001451402
   9   B   :   -0.001451402    0.001451402   -0.000000000
  10   B   :   -0.000000000   -0.001451402   -0.001451402
  11   B   :   -0.001451402   -0.000000000   -0.001451402
  12   B   :   -0.001451402   -0.001451402   -0.000000000

Difference to translation invariance:
           :    0.0000000000    0.0000000000   -0.0000000000

Difference to rotation invariance:
           :    0.0000000000   -0.0000000000    0.0000000000

Norm of the Dispersion gradient    ...    0.0071103871
RMS gradient                       ...    0.0011850645
MAX gradient                       ...    0.0014514017

------------------
CARTESIAN GRADIENT
------------------

   1   B   :   -0.000000055   -0.031910842   -0.025502807
   2   B   :   -0.040403824    0.000000422   -0.040404647
   3   B   :   -0.025501508   -0.031910753    0.000001264
   4   B   :    0.000000340   -0.031910594    0.025501512
   5   B   :   -0.040402489    0.000000764    0.040401518
   6   B   :   -0.025502784    0.031911103    0.000000320
   7   B   :   -0.000000222    0.031910738   -0.025501483
   8   B   :    0.040402692   -0.000000667   -0.040401312
   9   B   :    0.025502632   -0.031911198   -0.000000182
  10   B   :    0.000000208    0.031910749    0.025502495
  11   B   :    0.040403744   -0.000000308    0.040404468
  12   B   :    0.025501266    0.031910585   -0.000001147

Difference to translation invariance:
           :   -0.0000000000   -0.0000000000    0.0000000000

Difference to rotation invariance:
           :   -0.0000013490   -0.0000003816   -0.0000004390

Norm of the Cartesian gradient     ...    0.1625069834
RMS gradient                       ...    0.0270844972
MAX gradient                       ...    0.0404046467

-------
TIMINGS
-------

Total SCF gradient time     ....        1.927 sec

Densities                   ....       0.001 sec  (  0.0%)
One electron gradient       ....       0.085 sec  (  4.4%)
RI-J Coulomb gradient       ....       0.557 sec  ( 28.9%)
XC gradient                 ....       1.227 sec  ( 63.7%)

Maximum memory used throughout the entire SCFGRAD-calculation: 29.8 MB
------------------------------------------------------------------------------
                         ORCA GEOMETRY RELAXATION STEP
------------------------------------------------------------------------------

Reading the OPT-File                    .... done
Getting information on internals        .... done
Copying old internal coords+grads       .... done
Making the new internal coordinates     .... (2022 redundants) done
Validating the new internal coordinates .... (2022 redundants) done
Calculating the B-matrix                .... done
Calculating the G,G- and P matrices     .... done
Transforming gradient to internals      .... done
Projecting the internal gradient        .... done
Number of atoms                         ....  12
Number of internal coordinates          .... 240
Current Energy                          ....  -297.388355098 Eh
Current gradient norm                   ....     0.162506983 Eh/bohr
Maximum allowed component of the step   ....  0.300
Current trust radius                    ....  0.300
Evaluating the initial hessian          ....  (Almloef) done
Projecting the Hessian                  .... done
Forming the augmented Hessian           .... done
Diagonalizing the augmented Hessian     .... done
Last element of RFO vector              ....  0.903145971
Lowest eigenvalues of augmented Hessian:
 -0.054007045  0.024837237  0.049626550  0.050672989  0.050766097
Length of the computed step             ....  0.475375666
Warning: the length of the step is outside the trust region - taking restricted step instead
The input lambda is                     ....     0.023837
   iter:   5  x=   -0.193216  g=    0.517885 f(x)=     0.005293
The output lambda is                    ....    -0.193662 (9 iterations)
The final length of the internal step   ....  0.300000000
Converting the step to Cartesian space:
 Initial RMS(Int)=    0.0193649167
Transforming coordinates:
 Iter   0:  RMS(Cart)=    0.0351759626 RMS(Int)=    0.0193672230
done
Storing new coordinates                 .... done

                                .--------------------.
          ----------------------|Geometry convergence|-------------------------
          Item                value                   Tolerance       Converged
          ---------------------------------------------------------------------
          RMS gradient        0.0073363561            0.0001000000      NO
          MAX gradient        0.0240294712            0.0003000000      NO
          RMS step            0.0193649167            0.0020000000      NO
          MAX step            0.0634407456            0.0040000000      NO
          -------------------------------------------------------------------------
          ........................................................
          Max(Bonds)      0.0336      Max(Angles)    0.32
          Max(Dihed)        0.28      Max(Improp)    0.00
          ---------------------------------------------------------------------

The optimization has not yet converged - more geometry cycles are needed


    ---------------------------------------------------------------------------
                         Redundant Internal Coordinates
                            (Angstroem and degrees)

        Definition                    Value    dE/dq     Step     New-Value
    ----------------------------------------------------------------------------
     1. B(B   1,B   0)                1.8000  0.023910 -0.0335    1.7665   
     2. B(B   2,B   1)                1.8000  0.023881 -0.0335    1.7665   
     3. B(B   2,B   0)                1.8000  0.021369 -0.0295    1.7705   
     4. B(B   3,B   2)                1.8000  0.021350 -0.0295    1.7705   
     5. B(B   4,B   2)                1.8000  0.023925 -0.0335    1.7665   
[...]
      pz      :     0.787362  p :     2.135402
      px      :     0.739784
      py      :     0.608257
      dz2     :     0.011584  d :     0.056013
      dxz     :     0.012554
      dyz     :     0.009000
      dx2y2   :     0.011011
      dxy     :     0.011864

  9 B s       :     2.876260  s :     2.876260
      pz      :     0.608698  p :     2.056479
      px      :     0.803170
      py      :     0.644611
      dz2     :     0.009894  d :     0.068195
      dxz     :     0.010592
      dyz     :     0.014489
      dx2y2   :     0.016554
      dxy     :     0.016666

 10 B s       :     2.550680  s :     2.550680
      pz      :     0.596627  p :     2.346402
      px      :     0.844379
      py      :     0.905396
      dz2     :     0.016006  d :     0.081741
      dxz     :     0.014726
      dyz     :     0.015513
      dx2y2   :     0.016960
      dxy     :     0.018537

 11 B s       :     3.144963  s :     3.144963
      pz      :     0.629971  p :     1.918422
      px      :     0.690394
      py      :     0.598058
      dz2     :     0.006842  d :     0.063159
      dxz     :     0.008759
      dyz     :     0.013481
      dx2y2   :     0.017530
      dxy     :     0.016546



                     *******************************
                     * LOEWDIN POPULATION ANALYSIS *
                     *******************************

----------------------
LOEWDIN ATOMIC CHARGES
----------------------
   0 B :    0.028464
   1 B :   -0.080097
   2 B :    0.054504
   3 B :   -0.029441
   4 B :    0.002127
   5 B :   -0.033831
   6 B :    0.157580
   7 B :    0.027982
   8 B :   -0.067572
   9 B :   -0.033746
  10 B :    0.053928
  11 B :   -0.079900

-------------------------------
LOEWDIN REDUCED ORBITAL CHARGES
-------------------------------
  0 B s       :     2.799148  s :     2.799148
      pz      :     0.631769  p :     2.044962
      px      :     0.786227
      py      :     0.626967
      dz2     :     0.025495  d :     0.127425
      dxz     :     0.030377
      dyz     :     0.021036
      dx2y2   :     0.031270
      dxy     :     0.019248

  1 B s       :     2.698359  s :     2.698359
      pz      :     0.749568  p :     2.233692
      px      :     0.694071
      py      :     0.790052
      dz2     :     0.038687  d :     0.148046
      dxz     :     0.028204
      dyz     :     0.028512
      dx2y2   :     0.027133
      dxy     :     0.025510

  2 B s       :     2.590982  s :     2.590982
      pz      :     0.837744  p :     2.151366
      px      :     0.575991
      py      :     0.737631
      dz2     :     0.048590  d :     0.203149
      dxz     :     0.043745
      dyz     :     0.044864
      dx2y2   :     0.034536
      dxy     :     0.031413

  3 B s       :     2.642769  s :     2.642769
      pz      :     0.689818  p :     2.254224
      px      :     0.819880
      py      :     0.744527
      dz2     :     0.026957  d :     0.132448
      dxz     :     0.017792
      dyz     :     0.023226
      dx2y2   :     0.034543
      dxy     :     0.029930

  4 B s       :     2.576631  s :     2.576631
      pz      :     0.669711  p :     2.227245
      px      :     0.769494
      py      :     0.788040
      dz2     :     0.033421  d :     0.193997
      dxz     :     0.032123
      dyz     :     0.042433
      dx2y2   :     0.043772
      dxy     :     0.042248

  5 B s       :     2.633932  s :     2.633932
      pz      :     0.783475  p :     2.223849
      px      :     0.674339
      py      :     0.766035
      dz2     :     0.033741  d :     0.176051
      dxz     :     0.039686
      dyz     :     0.035033
      dx2y2   :     0.038929
      dxy     :     0.028662

  6 B s       :     2.619983  s :     2.619983
      pz      :     0.625218  p :     2.010994
      px      :     0.795964
      py      :     0.589812
      dz2     :     0.040147  d :     0.211443
      dxz     :     0.041733
      dyz     :     0.032527
      dx2y2   :     0.050334
      dxy     :     0.046702

  7 B s       :     2.798843  s :     2.798843
      pz      :     0.527649  p :     2.045615
      px      :     0.601488
      py      :     0.916478
      dz2     :     0.020578  d :     0.127560
      dxz     :     0.022212
      dyz     :     0.023444
      dx2y2   :     0.027847
      dxy     :     0.033479

  8 B s       :     2.718132  s :     2.718132
      pz      :     0.829382  p :     2.210123
      px      :     0.760227
      py      :     0.620514
      dz2     :     0.031062  d :     0.139316
      dxz     :     0.036387
      dyz     :     0.020417
      dx2y2   :     0.025167
      dxy     :     0.026283

  9 B s       :     2.634057  s :     2.634057
      pz      :     0.670782  p :     2.223681
      px      :     0.837499
      py      :     0.715400
      dz2     :     0.027987  d :     0.176008
      dxz     :     0.030905
      dyz     :     0.034837
      dx2y2   :     0.037971
      dxy     :     0.044308

 10 B s       :     2.590780  s :     2.590780
      pz      :     0.572190  p :     2.151865
      px      :     0.763731
      py      :     0.815945
      dz2     :     0.039359  d :     0.203426
      dxz     :     0.033253
      dyz     :     0.038456
      dx2y2   :     0.046020
      dxy     :     0.046336

 11 B s       :     2.698499  s :     2.698499
      pz      :     0.711144  p :     2.233354
      px      :     0.757819
      py      :     0.764391
      dz2     :     0.015752  d :     0.148047
      dxz     :     0.025934
      dyz     :     0.032460
      dx2y2   :     0.040989
      dxy     :     0.032911



                      *****************************
                      * MAYER POPULATION ANALYSIS *
                      *****************************

  NA   - Mulliken gross atomic population
  ZA   - Total nuclear charge
  QA   - Mulliken gross atomic charge
  VA   - Mayer's total valence
  BVA  - Mayer's bonded valence
  FA   - Mayer's free valence

  ATOM       NA         ZA         QA         VA         BVA        FA
  0 B      5.1811     5.0000    -0.1811     3.5501     3.5501     0.0000
  1 B      5.1267     5.0000    -0.1267     3.5711     3.5711     0.0000
  2 B      4.9822     5.0000     0.0178     3.7176     3.7176    -0.0000
  3 B      5.0013     5.0000    -0.0013     4.6514     4.6514    -0.0000
  4 B      4.8036     5.0000     0.1964     3.8387     3.8387     0.0000
  5 B      5.0000     5.0000     0.0000     3.9750     3.9750     0.0000
  6 B      4.9352     5.0000     0.0648     3.4137     3.4137     0.0000
  7 B      5.1825     5.0000    -0.1825     3.5520     3.5520    -0.0000
  8 B      4.6810     5.0000     0.3190     3.8988     3.8988    -0.0000
  9 B      5.0009     5.0000    -0.0009     3.9750     3.9750    -0.0000
 10 B      4.9788     5.0000     0.0212     3.7135     3.7135     0.0000
 11 B      5.1265     5.0000    -0.1265     3.5704     3.5704    -0.0000

  Mayer bond orders larger than 0.100000
B(  0-B ,  1-B ) :   1.0108 B(  0-B ,  2-B ) :   0.3186 B(  0-B ,  3-B ) :   0.1677 
B(  0-B ,  4-B ) :   0.1542 B(  0-B ,  5-B ) :   0.1473 B(  0-B ,  6-B ) :   0.4107 
B(  0-B ,  7-B ) :   0.2109 B(  0-B ,  8-B ) :   0.9976 B(  0-B ,  9-B ) :   0.1295 
B(  1-B ,  2-B ) :   0.4813 B(  1-B ,  3-B ) :   0.1976 B(  1-B ,  4-B ) :   0.1269 
B(  1-B ,  5-B ) :   0.9426 B(  1-B ,  6-B ) :   0.5932 B(  2-B ,  3-B ) :   0.8246 
B(  2-B ,  4-B ) :   0.7690 B(  2-B ,  5-B ) :   0.5490 B(  2-B ,  6-B ) :   0.1563 
B(  2-B ,  8-B ) :   0.1927 B(  2-B , 10-B ) :   0.2676 B(  3-B ,  4-B ) :   0.6312 
B(  3-B ,  5-B ) :   0.3021 B(  3-B ,  7-B ) :   0.1691 B(  3-B ,  8-B ) :   1.0739 
B(  3-B ,  9-B ) :   0.3030 B(  3-B , 10-B ) :   0.8257 B(  3-B , 11-B ) :   0.1981 
B(  4-B ,  5-B ) :   0.4865 B(  4-B ,  7-B ) :   0.1552 B(  4-B ,  9-B ) :   0.4863 
B(  4-B , 10-B ) :   0.7681 B(  4-B , 11-B ) :   0.1268 B(  5-B ,  6-B ) :   0.4609 
B(  5-B ,  7-B ) :   0.1294 B(  5-B ,  9-B ) :   0.7602 B(  6-B ,  7-B ) :   0.4109 
B(  6-B ,  8-B ) :   0.1469 B(  6-B ,  9-B ) :   0.4597 B(  6-B , 10-B ) :   0.1570 
B(  6-B , 11-B ) :   0.5931 B(  7-B ,  8-B ) :   0.9975 B(  7-B ,  9-B ) :   0.1478 
B(  7-B , 10-B ) :   0.3177 B(  7-B , 11-B ) :   1.0106 B(  8-B , 10-B ) :   0.1911 
B(  9-B , 10-B ) :   0.5482 B(  9-B , 11-B ) :   0.9430 B( 10-B , 11-B ) :   0.4800 


-------
TIMINGS
-------

Total SCF time: 0 days 0 hours 0 min 8 sec 

Total time                  ....       8.355 sec
Sum of individual times     ....       7.811 sec  ( 93.5%)

SCF preparation             ....       0.537 sec  (  6.4%)
Fock matrix formation       ....       5.338 sec  ( 63.9%)
  Startup                   ....       0.012 sec  (  0.2% of F)
  Split-RI-J                ....       1.437 sec  ( 26.9% of F)
  XC integration            ....       3.646 sec  ( 68.3% of F)
    XC Preparation          ....       0.000 sec  (  0.0% of XC)
    Basis function eval.    ....       0.598 sec  ( 16.4% of XC)
    Density eval.           ....       0.506 sec  ( 13.9% of XC)
    XC-Functional eval.     ....       0.061 sec  (  1.7% of XC)
    XC-Potential eval.      ....       0.551 sec  ( 15.1% of XC)
Diagonalization             ....       0.000 sec  (  0.0%)
Density matrix formation    ....       0.087 sec  (  1.0%)
Total Energy calculation    ....       0.126 sec  (  1.5%)
Population analysis         ....       0.301 sec  (  3.6%)
Orbital Transformation      ....       0.035 sec  (  0.4%)
Orbital Orthonormalization  ....       0.000 sec  (  0.0%)
DIIS solution               ....       0.155 sec  (  1.9%)
SOSCF solution              ....       1.232 sec  ( 14.8%)
Finished LeanSCF after   8.8 sec

Maximum memory used throughout the entire LEANSCF-calculation: 14.1 MB


-------------------------------------------------------------------------------
                          DFT DISPERSION CORRECTION                            
                                                                               
                              DFTD3 V3.1  Rev 1                                
                          USING Becke-Johnson damping                          
-------------------------------------------------------------------------------
The BP86 functional is recognized
Active option DFTDOPT                   ...         4   

molecular C6(AA) [au] = 4154.771295 


            DFT-D V3
 parameters
 s6 scaling factor         :     1.0000 
 a1 scaling factor         :     0.3946 
 s8 scaling factor         :     3.2822 
 a2 scaling factor         :     4.8516 
 ad hoc parameters k1-k3   :    16.0000     1.3333    -4.0000 

 Edisp/kcal,au: -23.966363004884  -0.038192826466 
 E6   /kcal   :  -6.819851167 
 E8   /kcal   : -17.146511838 
 % E8         :  71.544071308 

-------------------------   ----------------
Dispersion correction           -0.038192826
-------------------------   ----------------


-------------------------   --------------------
FINAL SINGLE POINT ENERGY      -297.659726088059
-------------------------   --------------------

                                *** OPTIMIZATION RUN DONE ***



           ************************************************************
           *        Program running with 8 parallel MPI-processes     *
           *              working on a common directory               *
           ************************************************************

------------------------------------------------------------------------------
                              ORCA PROPERTY CALCULATIONS
------------------------------------------------------------------------------

GBWName                                 ... cuboctahedron_nn1.80.gbw
Number of atoms                         ...     12
Number of basis functions               ...    168
Max core memory                         ...   2500 MB

Electric properties:
Dipole moment                           ... YES
Quadrupole moment                       ...  NO
Static polarizability (Dipole/Dipole)   ...  NO
Static polarizability (Dipole/Quad.)    ...  NO
Static polarizability (Quad./Quad.)     ...  NO
Static polarizability (Velocity)        ...  NO
Static hyperpolarizability              ...  NO

Atomic electric properties:
Dipole moment                           ...  NO
Quadrupole moment                       ...  NO
Static polarizability                   ...  NO

Choice of electric origin               ... Center of mass
Position of electric origin             ...    -0.000000     0.000000     0.000000

General magnetic properties:
Magnetizability                         ...  NO

EPR properties:
g-Tensor (aka g-matrix)                 ...  NO
Zero-Field splitting spin-orbit         ...  NO
Zero-field splitting spin-spin          ...  NO
Hyperfine couplings                     ...  NO (   0 nuclei)
Quadrupole couplings                    ...  NO (   0 nuclei)
Contact density                         ...  NO (   0 nuclei)

NMR properties:
Chemical shifts                         ...  NO (   0 nuclei)
Spin-rotation constants                 ...  NO (   0 nuclei)
Spin-spin couplings                     ...  NO (   0 nuclei,    0 pairs)

Choice of magnetic origin               ... GIAO
Position of magnetic origin             ...     0.000000     0.000000     0.000000

Properties with geometric perturbations:
SCF Hessian                             ...  NO
IR spectrum                             ...  NO
VCD spectrum                            ...  NO
X-ray spectroscopy properties:
SCF XES/XAS/RIXS spectra                ...  NO

SCF SOC stabilization energy            ...  NO
Diagonal Born-Oppenheimer correction    ...  NO

-------------
DIPOLE MOMENT
-------------

Method             : SCF
Type of density    : Electron Density
Multiplicity       :   1
Irrep              :   0
Energy             :  -297.6215332615932994 Eh
Basis              : AO
                                X                 Y                 Z
Electronic contribution:     -0.335208397       0.077800639       0.578899823
Nuclear contribution   :      0.000000000       0.000000000       0.000000000
                        -----------------------------------------
Total Dipole Moment    :     -0.335208397       0.077800639       0.578899823
                        -----------------------------------------
Magnitude (a.u.)       :      0.673455725
Magnitude (Debye)      :      1.711788416



--------------------
Rotational spectrum 
--------------------
 
Rotational constants in cm-1:             0.074546             0.068315             0.059853 
Rotational constants in MHz :          2234.841359          2048.040040          1794.334678 

Dipole components along the rotational axes: 
x,y,z [a.u.] :     0.000085    -0.458790     0.493005 
x,y,z [Debye]:     0.000216    -1.166152     1.253120 

 

Dipole moment calculation done in   0.2 sec 

Maximum memory used throughout the entire PROP-calculation: 11.0 MB

--------------------------------
SUGGESTED CITATIONS FOR THIS RUN
--------------------------------

Below you find a list of papers that are relevant to this ORCA run
We neither can nor want to force you to cite these papers, but we appreciate if you do
You receive ORCA, which is the product of decades of hard work by many enthusiastic individuals, for free
The only thing we kindly ask in return is that you cite our papers,
We deeply appreciate it, if you show your appreciation for ORCA by not just citing the generic ORCA reference.

Please note that relegating all ORCA citations to the supporting information does *not* help us.
SI sections are not indexed - citations you put there will not count into any citation statistics
But we need these citations in order to attract the funding resources that allow us to do what we are doing

Therefore, if you are a happy ORCA user, please consider citing a few of the papers listed below in the main body of your paper

In addition to the list printed below, the program has created the file cuboctahedron_nn1.80.bibtex that contains the list in bibtex format
You can import this file easily into all common literature databanks and citation aid programs

It goes without saying that in many instances, there are alternative algorithms to achieve similar
results as the ones you have gotten from ORCA. It is, of course, also the case that in some instances
ORCA just re-implements algorithms worked out by others. We are fully aware of that and we are also
fully appreciative of our colleagues work. Hence this citation list should not be read as indicating
that the listed papers, which are focused on our own work, are the only ones worth citing. It simply
meant to make it easier for users to cite ORCA specific papers. It is not a substitute for doing your
own literature research and citing the relevant literature in a scientifically appropriate manner.

List of essential papers. We consider these as the minimum necessary citations

  1. Neese, F.
     Software update: the ORCA program system, version 6.0
     WIRES Comput. Molec. Sci. 2025 15(1), e70019
     doi.org/10.1002/wcms.70019

List of papers to cite with high priority. The work reported in these papers was absolutely
necessary for this run to complete.
Our perspective: the developers of density functionals and basis sets usually get cited in chemistry papers
Good! But without the algorithms to do something with them, the functionals or basis sets would not do anything.
Hence, in our opinion, the algorithm design and method developments papers are equally worthy of getting cited

  1. Neese, F.
     An improvement of the resolution of the identity approximation for the formation of the Coulomb matrix
     J. Comp. Chem. 2003 24(14), 1740-1747
     doi.org/10.1002/jcc.10318
  2. Grimme, S.; Antony, J.; Ehrlich, S.; Krieg, H.
     A consistent and accurate ab initio parametrization of density functional dispersion correction (DFT-D) for the 94 elements H-Pu
     J. Chem. Phys. 2010 132 , 154104
     doi.org/10.1063/1.3382344
  3. Grimme, S.; Ehrlich, S.; Goerigk, L.
     Effect of the damping function in dispersion corrected density functional theory
     J. Comput. Chem. 2011 32(7), 1456-1465
     doi.org/10.1002/jcc.21759
  4. Neese, F.
     The SHARK Integral Generation and Digestion System
     J. Comp. Chem. 2022 44(3), 381
     doi.org/10.1002/jcc.26942

List of suggested additional citations. These are papers that are important in the 'surrounding' of 
of this run, or papers that preceded the highly important papers. If you like your results we are grateful for a citation.

  1. Neese, F.
     The ORCA program system
     WIRES Comput. Molec. Sci. 2012 2(1), 73-78
     doi.org/10.1002/wcms.81
  2. Neese, F.
     Software update: the ORCA program system, version 4.0
     WIRES Comput. Molec. Sci. 2018 8(1), 1-6
     doi.org/10.1002/wcms.1327
  3. Neese, F.; Wennmohs, F.; Becker, U.; Riplinger, C.
     The ORCA quantum chemistry program package
     J. Chem. Phys. 2020 152(22), 224108
     doi.org/10.1063/5.0004608
  4. Neese, F.
     Software update: The ORCA program system—Version 5.0
     WIRES Comput. Molec. Sci. 2022 12(1), e1606
     doi.org/10.1002/wcms.1606

List of optional additional citations

  1. Neese, F.
     Approximate second-order SCF convergence for spin unrestricted wavefunctions
     Chem. Phys. Lett. 2000 325(1-3), 93-98
     doi.org/10.1016/s0009-2614(00)00662-x

Timings for individual modules:

Sum of individual times          ...      934.661 sec (=  15.578 min)
Startup calculation              ...      122.574 sec (=   2.043 min)  13.1 %
SCF iterations                   ...      626.448 sec (=  10.441 min)  67.0 %
Property calculations            ...        1.337 sec (=   0.022 min)   0.1 %
SCF Gradient evaluation          ...      182.743 sec (=   3.046 min)  19.6 %
Geometry relaxation              ...        1.559 sec (=   0.026 min)   0.2 %
                             ****ORCA TERMINATED NORMALLY****
TOTAL RUN TIME: 0 days 0 hours 16 minutes 35 seconds 71 msec
