
                                 *****************
                                 * O   R   C   A *
                                 *****************

                                            #,                                       
                                            ###                                      
                                            ####                                     
                                            #####                                    
                                            ######                                   
                                           ########,                                 
                                     ,,################,,,,,                         
                               ,,#################################,,                 
                          ,,##########################################,,             
                       ,#########################################, ''#####,          
                    ,#############################################,,   '####,        
                  ,##################################################,,,,####,       
                ,###########''''           ''''###############################       
              ,#####''   ,,,,##########,,,,          '''####'''          '####       
            ,##' ,,,,###########################,,,                        '##       
           ' ,,###''''                  '''############,,,                           
         ,,##''                                '''############,,,,        ,,,,,,###''
      ,#''                                            '''#######################'''  
     '                                                          ''''####''''         
             ,#######,   #######,   ,#######,      ##                                
            ,#'     '#,  ##    ##  ,#'     '#,    #''#        ,####,    ,#,          
            ##       ##  ##   ,#'  ##            #'  '#       #'       ,# #          
            ##       ##  #######   ##           ,######,      #####,      #          
            '#,     ,#'  ##    ##  '#,     ,#' ,#      #,     #,   #      #          
             '#######'   ##     ##  '#######'  #'      '#     '####' #    #          



                #########################################################
                #                        -***-                          #
                #          Department of theory and spectroscopy        #
                #                                                       #
                #                      Frank Neese                      #
                #                                                       #
                #     Directorship, Architecture, Infrastructure        #
                #                    SHARK, DRIVERS                     #
                #        Core code/Algorithms in most modules           #
                #                                                       #
                #        Max Planck Institute fuer Kohlenforschung      #
                #                Kaiser Wilhelm Platz 1                 #
                #                 D-45470 Muelheim/Ruhr                 #
                #                      Germany                          #
                #                                                       #
                #                  All rights reserved                  #
                #                        -***-                          #
                #########################################################


                         Program Version 6.1.1  -  RELEASE   -
                                (GIT: $487d211c$)
                          ($2025-11-21 10:33:24 +0100$)
                                                                         
                                  - NO-DMRG VERSION -                    
                                                                         


 With contributions from (in alphabetic order):
[Max-Planck-Institut fuer Kohlenforschung]                               
  Daniel Aravena         : Magnetic Suceptibility                        
  Michael Atanasov       : Ab Initio Ligand Field Theory (pilot matlab implementation)
  Alexander A. Auer      : GIAO ZORA, VPT2 properties, NMR spectrum      
  Ute Becker             : All parallelization in ORCA, NUMFREQ, NUMCALC 
  Giovanni Bistoni       : ED, misc. LED, open-shell LED, HFLD           
  Dmytro Bykov           : pre 5.0 version of the SCF Hessian            
  Marcos Casanova-Páez   : Triplet and SCS-CIS(D). UHF-(DLPNO)-IP/EA/STEOM-CCSD. UHF-CVS-IP/STEOM-CCSD   
  Vijay G. Chilkuri      : MRCI spin determinant printing, contributions to CSF-ICE 
  Pauline Colinet        : FMM embedding                                 
  Dipayan Datta          : RHF DLPNO-CCSD density                        
  Achintya Kumar Dutta   : EOM-CC, STEOM-CC                              
  Nicolas Foglia         : Exact transition moments, OPA infrastructure, MCD improvements    
  Dmitry Ganyushin       : Spin-Orbit,Spin-Spin,Magnetic field MRCI      
  Miquel Garcia-Rates    : C-PCM and meta-GGA Hessian, CCSD/C-PCM, Gaussian charge scheme 
  Tiago L. C. Gouveia    : GS-ROHF, GS-ROCIS                             
  Yang Guo               : DLPNO-NEVPT2, F12-NEVPT2, CIM, IAO-localization        
  Andreas Hansen         : Spin unrestricted coupled pair/coupled cluster methods 
  Ingolf Harden          : AUTO-CI MPn and infrastructure                
  Benjamin Helmich-Paris : MC-RPA, TRAH-(SCF,CASSCF), AVAS, COSX integrals, SCF dyn. polar., MC-PDFT, srDFT 
  Lee Huntington         : MR-EOM, pCC                                   
  Robert Izsak           : Overlap fitted RIJCOSX, COSX-SCS-MP3, EOM     
  Riya Kayal             : Wick's Theorem for AUTO-CI, AUTO-CI UHF-CCSDT 
  Emily Kempfer          : AUTO-CI RHF CISDT and CCSDT, approximate NEVPT4
  Christian Kollmar      : KDIIS, OOCD, Brueckner-CCSD(T), CCSD density, CASPT2, CASPT2-K, improved NEVPT2 
  Axel Koslowski         : Symmetry handling                             
  Simone Kossmann        : meta-GGA functionals, TD-DFT gradient, OOMP2, (MP2 Hessian; deprecated post 5.0) 
  Lucas Lang             : DCDCAS, Hyperfine gauge corrections, ICE-SOC+SSC
  Marvin Lechner         : AUTO-CI (C++ implementation), FIC-MRCC        
  Spencer Leger          : CASSCF response                               
  Dagmar Lenk            : GEPOL surface, SMD, ORCA-2-JSON               
  Dimitrios Liakos       : Extrapolation schemes; Compound Job, Property file
  Dimitrios Manganas     : Further ROCIS development; embedding schemes. LFT, Crystal Embedding 
  Dimitrios Pantazis     : SARC Basis sets                               
  Anastasios Papadopoulos: AUTO-CI, single reference methods and gradients 
  Taras Petrenko         : pre 6.0 DFT Hessian and TD-DFT gradient,  ECA, NRVS 
  Petra Pikulova         : Analytic Raman intensities                    
  Peter Pinski           : DLPNO-MP2, DLPNO-MP2 Gradient                 
  Shashank Vittal Rao    : ES-AILFT, MagRelax                            
  Christoph Reimann      : Effective Core Potentials                     
  Marius Retegan         : Local ZFS, SOC                                
  Christoph Riplinger    : Optimizer, TS searches, QM/MM, DLPNO-CCSD(T), (RO)-DLPNO pert. Triples 
  Michael Roemelt        : Original ROCIS implementation, recursive CI coupling coefficients
  Masaaki Saitow         : Open-shell DLPNO-CCSD energy and density      
  Barbara Sandhoefer     : DKH picture change effects                    
  Yorick L. A. Schmerwitz: GMF and freeze-and-release deltaSCF, NEB S-IDPP initial path                    
  Kantharuban Sivalingam : CASSCF convergence/infrastructure, NEVPT2, NEVPT3, NEVPT4(SD), FIC-MRCI and CEPA variants
  Bernardo de Souza      : ESD, SOC TD-DFT                               
  Georgi L. Stoychev     : AutoAux, RI-MP2 NMR, DLPNO-MP2 response, X2C  
  Van Anh Tran           : RI-MP2 g-tensors                              
  Willem Van den Heuvel  : Paramagnetic NMR                              
  Zikuan Wang            : NOTCH, Electric field optimization            
  Frank Wennmohs         : Technical directorship and infrastructure     
  Hang Xu                : AUTO-CI-Response properties                   
                                                                         
[FACCTs GmbH]                                                            
  Markus Bursch, Nicolas Foglia, Miquel Garcia-Rates, Ingolf Harden, Hagen Neugebauer, Anastasios Papadopoulos, 
  Christoph Riplinger, Bernardo de Souza, Georgi L. Stoychev                                                    
                                                                 
  APM, various basis sets, CI-OPT, improved COSX, DLPNO-Multilevel,           
  DOCKER, DRACO, updates on ESD, Fragmentator, GOAT, IRC, LR-CPCM, L-BFGS, MBIS, meta-GGA TD-DFT gradient, ML-optimized integration grids, 
  MM, NACMEs, nearIR, NEB, NEB-TS, NL-DFT gradient (VV10), 2- and 3-layer-ONIOM, interface openCOSMO-RS, QMMM,   
  Crystal-QMMM, RESP, rigid body optimization, SF, symmetry and pop. for TD-DFT, various functionals, SOLVATOR                                   
                                                                         
[Other institutions]                                                     
  V. Asgeirsson          : NEB                                           
  Christoph Bannwarth    : sTDA-DFT, sTD-DFT, PBEh-3c, B97-3c, D3        
  Giovanni Bistoni       : ETS/NOCV, ADLD/ADEX, COVALED                  
  Martin Brehm           : Molecular dynamics                            
  Ronald Cardenas        : ETS/NOCV                                      
  Martina Colucci        : COVALED                                       
  Sebastian Ehlert       : rSCAN, r2SCAN, r2SCAN-3c, D4, dhf basis sets  
  Marvin Friede          : D4 for Fr, Ra, Ac-Lr                          
  Lars Goerigk           : TD-DFT with DH, B97 family of functionals     
  Stefan Grimme          : VdW corrections, initial TS optimization, DFT functionals, gCP, sTDA/sTD-DF 
  Waldemar Hujo          : DFT-NL                                        
  H. Jonsson             : NEB                                           
  Holger Kruse           : gCP                                           
  Marcel Mueller         : wB97X-3c, vDZP basis set                      
  Hagen Neugebauer       : wr2SCAN, Native XTB                           
  Gianluca Regni         : ADLD/ADEX                                     
  Tobias Risthaus        : pre 6.0 range-separated hybrid DFT and stability analysis
  Lukas Wittmann         : regularized MP2, r2SCAN double-hybrids, wr2SCAN        
                                                                         
We gratefully acknowledge several colleagues who have allowed us to      
interface, adapt or use parts of their codes:                            
  Ed Valeev, F. Pavosevic, A. Kumar             : LibInt (2-el integral package), F12 methods 
  Garnet Chan, S. Sharma, J. Yang, R. Olivares  : DMRG                   
  Ulf Ekstrom                                   : XCFun DFT Library      
  Mihaly Kallay                                 : mrcc  (arbitrary order and MRCC methods)
  Frank Weinhold                                : gennbo (NPA and NBO analysis)           
  Simon Mueller                                 : openCOSMO-RS                            
  Christopher J. Cramer and Donald G. Truhlar   : smd solvation model                     
  S Lehtola, MJT Oliveira, MAL Marques          : LibXC Library                           
  Liviu Ungur et al                             : ANISO software                          


 Your calculation uses the libint2 library for the computation of 2-el integrals
 For citations please refer to: http://libint.valeyev.net

 Your ORCA version has been built with support for libXC version: 7.0.0
 For citations please refer to: https://libxc.gitlab.io

 This ORCA versions uses:
   CBLAS   interface :  Fast vector & matrix operations
   LAPACKE interface :  Fast linear algebra routines
   SCALAPACK package :  Parallel linear algebra routines
   Shared memory     :  Shared parallel matrices
   BLAS/LAPACK       :  OpenBLAS 0.3.29  USE64BITINT DYNAMIC_ARCH NO_AFFINITY Zen SINGLE_THREADED
        Core in use  :  Zen
   Copyright (c) 2011-2014, The OpenBLAS Project


  ***********************************
  * Starting time: Thu Apr 23 16:08:44 2026
  * Host name:     vmi3233575
  * Process ID:    1327224
  * Working dir.:  /root/b12_scan/jobs/hex_prism_nn1.60
  ***********************************

NOTE: MaxCore=2500 MB was set to SCF,MP2,MDCI,CIPSI,MRCI,RASCI and CIS
      => If you want to overwrite this, your respective input block should be placed after the MaxCore statement
Your calculation utilizes the atom-pairwise dispersion correction
with the Becke-Johnson damping scheme (D3BJ)


================================================================================

----- Orbital basis set information -----
Your calculation utilizes the basis: def2-SVP
   F. Weigend and R. Ahlrichs, Phys. Chem. Chem. Phys. 7, 3297 (2005).

----- AuxJ basis set information -----
Your calculation utilizes the auxiliary basis: def2/J
   H-Rn: F. Weigend, Phys. Chem. Chem. Phys. 8, 1057 (2006).
   Fr-Lr: K. Eichkorn, F. Weigend, O. Treutler, R. Ahlrichs; Theor. Chem. Acc. 97, 119 (1997).

================================================================================
                                        WARNINGS
                       Please study these warnings very carefully!
================================================================================


WARNING: Geometry Optimization
  ===> : Switching off AutoStart
         For restart on a previous wavefunction, please use MOREAD

================================================================================
                                       INPUT FILE
================================================================================
NAME = hex_prism_nn1.60.inp
|  1> ! BP86 def2-SVP def2/J RI Opt TightSCF D3BJ
|  2> ! SlowConv
|  3> 
|  4> %pal nprocs 8 end
|  5> %maxcore 2500
|  6> 
|  7> %geom
|  8>   MaxIter 300
|  9> end
| 10> 
| 11> * xyz 0 1
| 12> B      2.00000000     -0.00000000      0.80000000
| 13> B      2.00000000     -0.00000000     -0.80000000
| 14> B      1.00000000      1.73205081      0.80000000
| 15> B      1.00000000      1.73205081     -0.80000000
| 16> B     -1.00000000      1.73205081      0.80000000
| 17> B     -1.00000000      1.73205081     -0.80000000
| 18> B     -2.00000000      0.00000000      0.80000000
| 19> B     -2.00000000      0.00000000     -0.80000000
| 20> B     -1.00000000     -1.73205081      0.80000000
| 21> B     -1.00000000     -1.73205081     -0.80000000
| 22> B      1.00000000     -1.73205081      0.80000000
| 23> B      1.00000000     -1.73205081     -0.80000000
| 24> *
| 25> 
| 26>                          ****END OF INPUT****
================================================================================

                       *****************************
                       * Geometry Optimization Run *
                       *****************************

Geometry optimization settings:
Update method            Update   .... BFGS
Choice of coordinates    CoordSys .... (2022) Redundant Internals
Initial Hessian          InHess   .... Almloef's Model
Max. no of cycles        MaxIter  .... 300

Convergence Tolerances:
Energy Change            TolE     ....  5.0000e-06 Eh
Max. Gradient            TolMAXG  ....  3.0000e-04 Eh/bohr
RMS Gradient             TolRMSG  ....  1.0000e-04 Eh/bohr
Max. Displacement        TolMAXD  ....  4.0000e-03 bohr
RMS Displacement         TolRMSD  ....  2.0000e-03 bohr
Strict Convergence                .... False

------------------------------------------------------------------------------
                        ORCA OPTIMIZATION COORDINATE SETUP
------------------------------------------------------------------------------

The optimization will be done in redundant internal coordinates (2022)
Making redundant internal coordinates   ...  (2022 redundants) done
Evaluating the initial hessian          ...  (Almloef) done
Evaluating the coordinates              ...  done
Calculating the B-matrix                .... done
Calculating the G-matrix                .... done
The number of degrees of freedom        ....  126

    -----------------------------------------------------------------
                    Redundant Internal Coordinates


    -----------------------------------------------------------------
         Definition                    Initial Value    Approx d2E/dq
    -----------------------------------------------------------------
      1. B(B   1,B   0)                  1.6000         0.387554   
      2. B(B   2,B   0)                  2.0000         0.089157   
      3. B(B   3,B   1)                  2.0000         0.089157   
      4. B(B   3,B   2)                  1.6000         0.387554   
      5. B(B   4,B   2)                  2.0000         0.089157   
      6. B(B   5,B   4)                  1.6000         0.387554   
      7. B(B   5,B   3)                  2.0000         0.089157   
      8. B(B   6,B   4)                  2.0000         0.089157   
      9. B(B   7,B   6)                  1.6000         0.387554   
     10. B(B   7,B   5)                  2.0000         0.089157   
     11. B(B   8,B   6)                  2.0000         0.089157   
     12. B(B   9,B   8)                  1.6000         0.387554   
     13. B(B   9,B   7)                  2.0000         0.089157   
     14. B(B  10,B   8)                  2.0000         0.089157   
     15. B(B  10,B   0)                  2.0000         0.089157   
     16. B(B  11,B  10)                  1.6000         0.387554   
     17. B(B  11,B   9)                  2.0000         0.089157   
     18. B(B  11,B   1)                  2.0000         0.089157   
     19. A(B   1,B   0,B   2)           90.0000         0.297719   
     20. A(B   2,B   0,B  10)          120.0000         0.238665   
     21. A(B   1,B   0,B  10)           90.0000         0.297719   
     22. A(B   3,B   1,B  11)          120.0000         0.238665   
     23. A(B   0,B   1,B  11)           90.0000         0.297719   
     24. A(B   0,B   1,B   3)           90.0000         0.297719   
     25. A(B   3,B   2,B   4)           90.0000         0.297719   
     26. A(B   0,B   2,B   4)          120.0000         0.238665   
     27. A(B   0,B   2,B   3)           90.0000         0.297719   
     28. A(B   1,B   3,B   5)          120.0000         0.238665   
     29. A(B   2,B   3,B   5)           90.0000         0.297719   
     30. A(B   1,B   3,B   2)           90.0000         0.297719   
     31. A(B   5,B   4,B   6)           90.0000         0.297719   
     32. A(B   2,B   4,B   6)          120.0000         0.238665   
     33. A(B   2,B   4,B   5)           90.0000         0.297719   
     34. A(B   4,B   5,B   7)           90.0000         0.297719   
     35. A(B   3,B   5,B   7)          120.0000         0.238665   
     36. A(B   3,B   5,B   4)           90.0000         0.297719   
     37. A(B   4,B   6,B   7)           90.0000         0.297719   
     38. A(B   7,B   6,B   8)           90.0000         0.297719   
     39. A(B   4,B   6,B   8)          120.0000         0.238665   
     40. A(B   6,B   7,B   9)           90.0000         0.297719   
     41. A(B   5,B   7,B   9)          120.0000         0.238665   
     42. A(B   5,B   7,B   6)           90.0000         0.297719   
     43. A(B   9,B   8,B  10)           90.0000         0.297719   
     44. A(B   6,B   8,B  10)          120.0000         0.238665   
     45. A(B   6,B   8,B   9)           90.0000         0.297719   
     46. A(B   8,B   9,B  11)           90.0000         0.297719   
     47. A(B   7,B   9,B  11)          120.0000         0.238665   
     48. A(B   7,B   9,B   8)           90.0000         0.297719   
     49. A(B   0,B  10,B   8)          120.0000         0.238665   
     50. A(B   8,B  10,B  11)           90.0000         0.297719   
     51. A(B   0,B  10,B  11)           90.0000         0.297719   
     52. A(B   9,B  11,B  10)           90.0000         0.297719   
     53. A(B   1,B  11,B  10)           90.0000         0.297719   
     54. A(B   1,B  11,B   9)          120.0000         0.238665   
     55. D(B   3,B   1,B   0,B   2)     -0.0000         0.010000   
     56. D(B   3,B   1,B   0,B  10)    120.0000         0.010000   
     57. D(B  11,B   1,B   0,B   2)   -120.0000         0.010000   
     58. D(B  11,B   1,B   0,B  10)      0.0000         0.010000   
     59. D(B   4,B   2,B   0,B   1)     90.0000         0.010000   
     60. D(B   3,B   2,B   0,B   1)      0.0000         0.010000   
     61. D(B   3,B   2,B   0,B  10)    -90.0000         0.010000   
     62. D(B   4,B   2,B   0,B  10)      0.0000         0.010000   
     63. D(B   1,B   3,B   2,B   4)   -120.0000         0.010000   
     64. D(B   5,B   3,B   1,B  11)      0.0000         0.010000   
     65. D(B   5,B   3,B   1,B   0)    -90.0000         0.010000   
     66. D(B   1,B   3,B   2,B   0)     -0.0000         0.010000   
     67. D(B   5,B   3,B   2,B   0)    120.0000         0.010000   
     68. D(B   5,B   3,B   2,B   4)      0.0000         0.010000   
     69. D(B   2,B   3,B   1,B  11)     90.0000         0.010000   
     70. D(B   2,B   3,B   1,B   0)      0.0000         0.010000   
     71. D(B   6,B   4,B   2,B   3)     90.0000         0.010000   
     72. D(B   6,B   4,B   2,B   0)      0.0000         0.010000   
     73. D(B   5,B   4,B   2,B   3)      0.0000         0.010000   
     74. D(B   5,B   4,B   2,B   0)    -90.0000         0.010000   
     75. D(B   7,B   5,B   4,B   6)      0.0000         0.010000   
     76. D(B   3,B   5,B   4,B   6)   -120.0000         0.010000   
     77. D(B   3,B   5,B   4,B   2)      0.0000         0.010000   
     78. D(B   7,B   5,B   3,B   2)    -90.0000         0.010000   
     79. D(B   7,B   5,B   3,B   1)      0.0000         0.010000   
     80. D(B   7,B   5,B   4,B   2)    120.0000         0.010000   
     81. D(B   4,B   5,B   3,B   2)      0.0000         0.010000   
     82. D(B   4,B   5,B   3,B   1)     90.0000         0.010000   
     83. D(B   8,B   6,B   4,B   2)      0.0000         0.010000   
     84. D(B   7,B   6,B   4,B   5)      0.0000         0.010000   
     85. D(B   7,B   6,B   4,B   2)    -90.0000         0.010000   
     86. D(B   8,B   6,B   4,B   5)     90.0000         0.010000   
     87. D(B   9,B   7,B   6,B   8)     -0.0000         0.010000   
     88. D(B   5,B   7,B   6,B   8)   -120.0000         0.010000   
     89. D(B   5,B   7,B   6,B   4)      0.0000         0.010000   
     90. D(B   9,B   7,B   5,B   4)    -90.0000         0.010000   
     91. D(B   9,B   7,B   5,B   3)      0.0000         0.010000   
     92. D(B   9,B   7,B   6,B   4)    120.0000         0.010000   
     93. D(B   6,B   7,B   5,B   4)      0.0000         0.010000   
     94. D(B   6,B   7,B   5,B   3)     90.0000         0.010000   
     95. D(B  10,B   8,B   6,B   7)     90.0000         0.010000   
     96. D(B  10,B   8,B   6,B   4)      0.0000         0.010000   
     97. D(B   9,B   8,B   6,B   7)      0.0000         0.010000   
     98. D(B   9,B   8,B   6,B   4)    -90.0000         0.010000   
     99. D(B  11,B   9,B   8,B  10)      0.0000         0.010000   
    100. D(B  11,B   9,B   8,B   6)    120.0000         0.010000   
    101. D(B   7,B   9,B   8,B  10)   -120.0000         0.010000   
    102. D(B   7,B   9,B   8,B   6)     -0.0000         0.010000   
    103. D(B  11,B   9,B   7,B   6)    -90.0000         0.010000   
    104. D(B  11,B   9,B   7,B   5)      0.0000         0.010000   
    105. D(B   8,B   9,B   7,B   6)      0.0000         0.010000   
    106. D(B   8,B   9,B   7,B   5)     90.0000         0.010000   
    107. D(B  11,B  10,B   8,B   9)      0.0000         0.010000   
    108. D(B   0,B  10,B   8,B   9)     90.0000         0.010000   
    109. D(B   0,B  10,B   8,B   6)      0.0000         0.010000   
    110. D(B  11,B  10,B   0,B   2)     90.0000         0.010000   
    111. D(B  11,B  10,B   0,B   1)      0.0000         0.010000   
    112. D(B  11,B  10,B   8,B   6)    -90.0000         0.010000   
    113. D(B   8,B  10,B   0,B   2)      0.0000         0.010000   
    114. D(B   8,B  10,B   0,B   1)    -90.0000         0.010000   
    115. D(B  10,B  11,B   1,B   0)      0.0000         0.010000   
    116. D(B   9,B  11,B   1,B   3)      0.0000         0.010000   
    117. D(B   9,B  11,B   1,B   0)     90.0000         0.010000   
    118. D(B   9,B  11,B  10,B   8)      0.0000         0.010000   
    119. D(B   1,B  11,B  10,B   8)    120.0000         0.010000   
    120. D(B   1,B  11,B  10,B   0)      0.0000         0.010000   
    121. D(B  10,B  11,B   9,B   8)      0.0000         0.010000   
    122. D(B  10,B  11,B   9,B   7)     90.0000         0.010000   
    123. D(B   1,B  11,B   9,B   8)    -90.0000         0.010000   
    124. D(B   9,B  11,B  10,B   0)   -120.0000         0.010000   
    125. D(B   1,B  11,B   9,B   7)      0.0000         0.010000   
    126. D(B  10,B  11,B   1,B   3)    -90.0000         0.010000   
    -----------------------------------------------------------------

Number of atoms                         .... 12
Number of degrees of freedom            .... 126


         *************************************************************
         *                GEOMETRY OPTIMIZATION CYCLE   1            *
         *************************************************************
---------------------------------
CARTESIAN COORDINATES (ANGSTROEM)
---------------------------------
  B      2.000000   -0.000000    0.800000
  B      2.000000   -0.000000   -0.800000
  B      1.000000    1.732051    0.800000
  B      1.000000    1.732051   -0.800000
  B     -1.000000    1.732051    0.800000
  B     -1.000000    1.732051   -0.800000
  B     -2.000000    0.000000    0.800000
  B     -2.000000    0.000000   -0.800000
  B     -1.000000   -1.732051    0.800000
  B     -1.000000   -1.732051   -0.800000
  B      1.000000   -1.732051    0.800000
  B      1.000000   -1.732051   -0.800000

----------------------------
CARTESIAN COORDINATES (A.U.)
----------------------------
  NO LB      ZA    FRAG     MASS         X           Y           Z
   0 B     5.0000    0    10.810    3.779452   -0.000000    1.511781
   1 B     5.0000    0    10.810    3.779452   -0.000000   -1.511781
   2 B     5.0000    0    10.810    1.889726    3.273102    1.511781
   3 B     5.0000    0    10.810    1.889726    3.273102   -1.511781
   4 B     5.0000    0    10.810   -1.889726    3.273102    1.511781
   5 B     5.0000    0    10.810   -1.889726    3.273102   -1.511781
   6 B     5.0000    0    10.810   -3.779452    0.000000    1.511781
   7 B     5.0000    0    10.810   -3.779452    0.000000   -1.511781
   8 B     5.0000    0    10.810   -1.889726   -3.273102    1.511781
   9 B     5.0000    0    10.810   -1.889726   -3.273102   -1.511781
  10 B     5.0000    0    10.810    1.889726   -3.273102    1.511781
  11 B     5.0000    0    10.810    1.889726   -3.273102   -1.511781

--------------------------------
INTERNAL COORDINATES (ANGSTROEM)
--------------------------------
 B      0   0   0     0.000000000000     0.00000000     0.00000000
 B      1   0   0     1.600000000000     0.00000000     0.00000000
 B      1   2   0     2.000000002105    90.00000000     0.00000000
 B      3   1   2     1.600000000000    90.00000000     0.00000000
 B      3   1   2     2.000000000000   119.99999997    90.00000000
 B      5   3   1     1.600000000000    90.00000000   270.00000000
 B      5   3   1     2.000000002105   119.99999997     0.00000000
 B      7   5   3     1.600000000000    90.00000000   270.00000000
 B      7   5   3     2.000000002105   120.00000007     0.00000000
 B      9   7   5     1.600000000000    90.00000000   270.00000000
 B      9   7   5     2.000000000000   119.99999997     0.00000000
 B     11   9   7     1.600000000000    90.00000000   270.00000000

---------------------------
INTERNAL COORDINATES (A.U.)
---------------------------
 B      0   0   0     0.000000000000     0.00000000     0.00000000
 B      1   0   0     3.023561814274     0.00000000     0.00000000
 B      1   2   0     3.779452271821    90.00000000     0.00000000
 B      3   1   2     3.023561814274    90.00000000     0.00000000
 B      3   1   2     3.779452267843   119.99999997    90.00000000
 B      5   3   1     3.023561814274    90.00000000   270.00000000
 B      5   3   1     3.779452271821   119.99999997     0.00000000
 B      7   5   3     3.023561814274    90.00000000   270.00000000
 B      7   5   3     3.779452271821   120.00000007     0.00000000
 B      9   7   5     3.023561814274    90.00000000   270.00000000
 B      9   7   5     3.779452267843   119.99999997     0.00000000
 B     11   9   7     3.023561814274    90.00000000   270.00000000

---------------------
BASIS SET INFORMATION
---------------------
There are 1 groups of distinct atoms

 Group   1 Type B   : 7s4p1d contracted to 3s2p1d pattern {511/31/1}

Atom   0B    basis set group =>   1
Atom   1B    basis set group =>   1
Atom   2B    basis set group =>   1
Atom   3B    basis set group =>   1
Atom   4B    basis set group =>   1
Atom   5B    basis set group =>   1
Atom   6B    basis set group =>   1
Atom   7B    basis set group =>   1
Atom   8B    basis set group =>   1
Atom   9B    basis set group =>   1
Atom  10B    basis set group =>   1
Atom  11B    basis set group =>   1
---------------------------------
AUXILIARY/J BASIS SET INFORMATION
---------------------------------
There are 1 groups of distinct atoms

 Group   1 Type B   : 12s5p4d2f1g contracted to 6s4p3d1f1g pattern {711111/2111/211/2/1}

Atom   0B    basis set group =>   1
Atom   1B    basis set group =>   1
Atom   2B    basis set group =>   1
Atom   3B    basis set group =>   1
Atom   4B    basis set group =>   1
Atom   5B    basis set group =>   1
Atom   6B    basis set group =>   1
Atom   7B    basis set group =>   1
Atom   8B    basis set group =>   1
Atom   9B    basis set group =>   1
Atom  10B    basis set group =>   1
Atom  11B    basis set group =>   1


           ************************************************************
           *        Program running with 8 parallel MPI-processes     *
           *              working on a common directory               *
           ************************************************************
------------------------------------------------------------------------------
                             ORCA STARTUP CALCULATIONS
                           -- RI-GTO INTEGRALS CHOSEN --
------------------------------------------------------------------------------
------------------------------------------------------------------------------
                   ___                                                        
                  /   \      - P O W E R E D   B Y -                         
                 /     \                                                     
                 |  |  |   _    _      __       _____    __    __             
                 |  |  |  | |  | |    /  \     |  _  \  |  |  /  |          
                  \  \/   | |  | |   /    \    | | | |  |  | /  /          
                 / \  \   | |__| |  /  /\  \   | |_| |  |  |/  /          
                |  |  |   |  __  | /  /__\  \  |    /   |      \           
                |  |  |   | |  | | |   __   |  |    \   |  |\   \          
                \     /   | |  | | |  |  |  |  | |\  \  |  | \   \       
                 \___/    |_|  |_| |__|  |__|  |_| \__\ |__|  \__/        
                                                                              
                      - O R C A' S   B I G   F R I E N D -                    
                                      &                                       
                       - I N T E G R A L  F E E D E R -                       
                                                                              
 v1 FN, 2020, v2 2021, v3 2022-2024                                           
------------------------------------------------------------------------------


----------------------
SHARK INTEGRAL PACKAGE
----------------------

Number of atoms                             ...     12
Number of basis functions                   ...    168
Number of shells                            ...     72
Maximum angular momentum                    ...      2
Integral batch strategy                     ... SHARK/LIBINT Hybrid
RI-J (if used) integral strategy            ... SPLIT-RIJ (Revised 2003 algorithm where possible)
Printlevel                                  ...      1
Contraction scheme used                     ... SEGMENTED contraction
Prescreening option                         ... SCHWARTZ
   Thresh                                   ... 2.500e-11
   Tcut                                     ... 2.500e-12
   Tpresel                                  ... 2.500e-12 
Coulomb Range Separation                    ... NOT USED
Exchange Range Separation                   ... NOT USED
Multipole approximations                    ... NOT USED
Finite Nucleus Model                        ... NOT USED
CABS basis                                  ... NOT available
Auxiliary Coulomb fitting basis             ... AVAILABLE
   # of basis functions in Aux-J            ...    588
   # of shells in Aux-J                     ...    180
   Maximum angular momentum in Aux-J        ...      4
Auxiliary J/K fitting basis                 ... NOT available
Auxiliary Correlation fitting basis         ... NOT available
Auxiliary 'external' fitting basis          ... NOT available

Checking pre-screening integrals            ... done (  0.0 sec) Dimension = 72
   => SHARK Basis and OBASIS are compatible. Storing Pre-screening
Shell pair information
Shell pair cut-off parameter TPreSel        ...   2.5e-12
Total number of shell pairs                 ...      2628
Shell pairs after pre-screening             ...      2580
Total number of primitive shell pairs       ...     10596
Primitive shell pairs kept                  ...      7776
          la=0 lb=0:    618 shell pairs
          la=1 lb=0:    864 shell pairs
          la=1 lb=1:    300 shell pairs
          la=2 lb=0:    432 shell pairs
          la=2 lb=1:    288 shell pairs
          la=2 lb=2:     78 shell pairs

Checking whether 4 symmetric matrices of dimension 168 fit in memory
:Max Core in MB      =   2500.00
 MB in use           =      6.88
 MB left             =   2493.12
 MB needed           =      0.43
 Data fit in memory  = YES
Calculating RI/J V-Matrix + Cholesky decomp.... done (  0.0 sec)
Calculating Nuclear repulsion               ... done (  0.0 sec) ENN=    316.671336341452 Eh

Diagonalization of the overlap matrix:
Smallest eigenvalue                        ... 1.463e-05
Time for diagonalization                   ...    0.004 sec
Threshold for overlap eigenvalues          ... 1.000e-07
Number of eigenvalues below threshold      ... 0
Time for construction of square roots      ...    0.003 sec
Total time needed                          ...    0.009 sec

-------------------
DFT GRID GENERATION
-------------------

General Integration Accuracy     IntAcc      ... 4.388
Radial Grid Type                 RadialGrid  ... OptM3 with GC (2021)
Angular Grid (max. ang.)         AngularGrid ... 4 (Lebedev-302)
Angular grid pruning method      GridPruning ... 4 (adaptive)
Weight generation scheme         WeightScheme... mBecke (2022)
Basis function cutoff            BFCut       ... 1.0000e-11
Integration weight cutoff        WCut        ... 1.0000e-14
Partially contracted basis set               ... off
Rotationally invariant grid construction     ... off
Angular grids for H and He will be reduced by one unit

Total number of grid points                  ...    71256
Total number of batches                      ...     1120
Average number of points per batch           ...       63
Average number of grid points per atom       ...     5938
Grids setup in   0.7 sec
Initializing property integral containers    ... done (  0.0 sec)

SHARK setup successfully completed in   0.9 seconds

Maximum memory used throughout the entire STARTUP-calculation: 19.9 MB


           ************************************************************
           *        Program running with 8 parallel MPI-processes     *
           *              working on a common directory               *
           ************************************************************
-------------------------------------------------------------------------------
                                 ORCA GUESS
                   Start orbitals & Density for SCF / CASSCF
-------------------------------------------------------------------------------

------------
SCF SETTINGS
------------
Hamiltonian:
 Density Functional     Method          .... DFT(GTOs)
 Exchange Functional    Exchange        .... B88
   X-Alpha parameter    XAlpha          ....  0.666667
   Becke's b parameter  XBeta           ....  0.004200
 Correlation Functional Correlation     .... P86
 LDA part of GGA corr.  LDAOpt          .... PW91-LDA
 Gradients option       PostSCFGGA      .... off
   NL short-range parameter             ....  4.400000
 RI-approximation to the Coulomb term is turned on
   Number of AuxJ basis functions       .... 588


General Settings:
 Integral files         IntName         .... hex_prism_nn1.60
 Hartree-Fock type      HFTyp           .... RHF
 Total Charge           Charge          ....    0
 Multiplicity           Mult            ....    1
 Number of Electrons    NEL             ....   60
 Basis Dimension        Dim             ....  168
 Nuclear Repulsion      ENuc            ....    316.6713363415 Eh

Convergence Acceleration:
 AO-DIIS                CNVDIIS         .... on
   Start iteration      DIISMaxIt       ....     0
   Startup error        DIISStart       ....  0.200000
   # of expansion vecs  DIISMaxEq       ....     5
   Bias factor          DIISBfac        ....   1.050
   Max. coefficient     DIISMaxC        ....  10.000
 MO-DIIS                CNVKDIIS        .... off
 Trust-Rad. Augm. Hess. CNVTRAH         .... auto
   Auto Start mean grad. ratio tolernc. ....  1.125000
   Auto Start start iteration           ....    50
   Auto Start num. interpolation iter.  ....    10
   Max. Number of Micro iterations      ....    24
   Max. Number of Macro iterations      .... Maxiter - #DIIS iter
   Number of Davidson start vectors     ....     2
   Converg. threshold    (grad. norm)   ....   1.000e-05
   Grad. Scal. Fac. for Micro threshold ....   0.100
   Minimum threshold for Micro iter.    ....   1.000e-02
   NR start threshold (gradient norm)   ....   1.000e-04
   Initial trust radius                 ....   0.400
   Minimum AH scaling param. (alpha)    ....   1.000
   Maximum AH scaling param. (alpha)    .... 1000.000
   Quad. conv. algorithm                .... NR
   White noise on init. David. guess    .... on
   Maximum white noise                  ....   0.010
   Pseudo random numbers                .... off
   Inactive MOs                         .... canonical
   Orbital update algorithm             .... Taylor
   Preconditioner                       .... Diag
   Full preconditioner red. dimension   ....   250
 SOSCF                 CNVSOSCF           .... on
   Start iteration     SOSCFMaxIt         ....   150
   Startup grad/error  SOSCFStart         ....  0.001000
   Hessian update      SOSCFHessUp        .... L-BFGS
   Autom. constraints  SOSCFAutoConstrain .... off
 Level Shifting         CNVShift        .... on
   Level shift para.    LevelShift      ....    0.2500
   Turn off err/grad.   ShiftErr        ....    0.0000
 Zerner damping         CNVZerner       .... off
 Static damping         CNVDamp         .... on
   Fraction old density DampFac         ....    0.8500
   Max. Damping (<1)    DampMax         ....    0.9800
   Min. Damping (>=0)   DampMin         ....    0.0000
   Turn off err/grad.   DampErr         ....    0.0300

SCF Procedure:
 Maximum # iterations   MaxIter         ....   125
 SCF integral mode      SCFMode         .... Direct
   Integral package                     .... SHARK and LIBINT hybrid scheme
 Reset frequency        DirectResetFreq ....    20
 Integral Threshold     Thresh          ....  2.500e-11 Eh
 Primitive CutOff       TCut            ....  2.500e-12 Eh

Convergence Tolerance:
 Convergence Check Mode ConvCheckMode   .... Total+1el-Energy
 Convergence forced     ConvForced      .... 0
 Energy Change          TolE            ....  1.000e-08 Eh
 1-El. energy change                    ....  1.000e-05 Eh
 Orbital Gradient       TolG            ....  1.000e-05
 Orbital Rotation angle TolX            ....  1.000e-05
 DIIS Error             TolErr          ....  5.000e-07

------------------------------
INITIAL GUESS: MODEL POTENTIAL
------------------------------
Loading Hartree-Fock densities                     ... done
Calculating cut-offs                               ... done
Initializing the effective Hamiltonian             ... done
Setting up the integral package (SHARK)            ... done
Starting the Coulomb interaction                   ... done (   0.0 sec)
Making the grid                                    ... done (   0.2 sec)
Mapping shells                                     ... done
Starting the XC term evaluation                    ... done (   0.0 sec)
  promolecular density results
     # of electrons  =     60.001237055
     EX              =    -45.328561377
     EC              =     -1.936975312
     EX+EC           =    -47.265536689
Transforming the Hamiltonian                       ... done (   0.0 sec)
Diagonalizing the Hamiltonian                      ... done (   0.0 sec)
Back transforming the eigenvectors                 ... done (   0.0 sec)
Now organizing SCF variables                       ... done
                      ------------------
                      INITIAL GUESS DONE (   0.3 sec)
                      ------------------
             **** ENERGY FILE WAS UPDATED (hex_prism_nn1.60.en.tmp) ****
Finished Guess after   0.8 sec
Maximum memory used throughout the entire GUESS-calculation: 9.7 MB


           ************************************************************
           *        Program running with 8 parallel MPI-processes     *
           *              working on a common directory               *
           ************************************************************

-------------------------------------------------------------------------------------------
                                      ORCA LEAN-SCF
                              memory conserving SCF solver
-------------------------------------------------------------------------------------------

----------------------------------------D-I-I-S--------------------------------------------
Iteration    Energy (Eh)           Delta-E    RMSDP     MaxDP     DIISErr   Damp  Time(sec)
-------------------------------------------------------------------------------------------
               ***  Starting incremental Fock matrix formation  ***
    1    -296.8126895676867321     0.00e+00  6.58e-03  2.65e-02  9.67e-02  0.850   0.8
Warning: op=0 Small HOMO/LUMO gap (  -0.037) - skipping pre-diagonalization
         Will do a full diagonalization
    2    -296.8972228143624648    -8.45e-02  8.53e-03  3.60e-02  7.23e-02  0.850   0.4
                               ***Turning on AO-DIIS***
    3    -296.9516411940983858    -5.44e-02  4.60e-03  2.11e-02  4.54e-02  0.850   0.3
    4    -296.9820653153896615    -3.04e-02  2.45e-03  1.13e-02  3.18e-02  0.850   0.4
    5    -297.0024487986062809    -2.04e-02  1.54e-03  6.66e-03  2.40e-02  0.850   0.4
    6    -297.0177164978660471    -1.53e-02  7.47e-03  3.08e-02  1.90e-02  0.000   0.3
    7    -297.0924026835351128    -7.47e-02  1.02e-03  4.33e-03  4.85e-03  0.000   0.3
    8    -297.0931469249746328    -7.44e-04  6.46e-04  2.34e-03  1.82e-03  0.000   0.3
                              *** Initializing SOSCF ***
---------------------------------------S-O-S-C-F--------------------------------------
Iteration    Energy (Eh)           Delta-E    RMSDP     MaxDP     MaxGrad    Time(sec)
--------------------------------------------------------------------------------------
    9    -297.0933542320803440    -2.07e-04  3.09e-04  9.23e-04  6.63e-04     0.4
               *** Restarting incremental Fock matrix formation ***
   10    -297.0934406465026427    -8.64e-05  4.58e-04  1.76e-03  1.25e-03     0.4
   11    -297.0935681800787620    -1.28e-04  3.50e-03  1.27e-02  1.13e-03     0.3
   12    -297.0940244530559653    -4.56e-04  1.06e-03  3.53e-03  9.76e-04     0.4
   13    -297.0940868210948906    -6.24e-05  4.45e-04  1.58e-03  9.97e-04     0.3
   14    -297.0941353438342389    -4.85e-05  6.36e-04  1.68e-03  4.93e-04     0.3
   15    -297.0941551574218806    -1.98e-05  1.31e-04  4.18e-04  2.78e-04     0.3
   16    -297.0941570032564982    -1.85e-06  4.57e-05  1.10e-04  1.26e-04     0.3
   17    -297.0941572553570609    -2.52e-07  1.47e-05  5.54e-05  1.89e-05     0.4
   18    -297.0941572494932075     5.86e-09  7.46e-06  3.96e-05  2.96e-05     0.3
                 **** Energy Check signals convergence ****

               *****************************************************
               *                     SUCCESS                       *
               *           SCF CONVERGED AFTER  18 CYCLES          *
               *****************************************************

             **** ENERGY FILE WAS UPDATED (hex_prism_nn1.60.en.tmp) ****

----------------
TOTAL SCF ENERGY
----------------

Total Energy       :       -297.09415726695903 Eh           -8084.34302 eV

Components:
Nuclear Repulsion  :        316.67133634145245 Eh            8617.06514 eV
Electronic Energy  :       -613.76549360841136 Eh          -16701.40816 eV
One Electron Energy:      -1022.84677629053704 Eh          -27833.07579 eV
Two Electron Energy:        409.08128268212562 Eh           11131.66762 eV

Virial components:
Potential Energy   :       -589.71262923005861 Eh          -16046.89645 eV
Kinetic Energy     :        292.61847196309964 Eh            7962.55343 eV
Virial Ratio       :          2.01529529312976

DFT components:
N(Alpha)           :       29.999714844266 electrons
N(Beta)            :       29.999714844266 electrons
N(Total)           :       59.999429688532 electrons
E(X)               :      -45.812297409894 Eh       
E(C)               :       -1.964388496457 Eh       
E(XC)              :      -47.776685906351 Eh       

---------------
SCF CONVERGENCE
---------------

  Last Energy change         ...   -5.8639e-09  Tolerance :   1.0000e-08
  Last MAX-Density change    ...    3.9639e-05  Tolerance :   1.0000e-07
  Last RMS-Density change    ...    7.4578e-06  Tolerance :   5.0000e-09
  Last DIIS Error            ...    6.6269e-04  Tolerance :   5.0000e-07
  Last Orbital Gradient      ...    2.9571e-05  Tolerance :   1.0000e-05
  Last Orbital Rotation      ...    4.3608e-05  Tolerance :   1.0000e-05


----------------
ORBITAL ENERGIES
----------------

  NO   OCC          E(Eh)            E(eV) 
   0   2.0000      -6.585251      -179.1938 
   1   2.0000      -6.585188      -179.1921 
   2   2.0000      -6.585187      -179.1921 
   3   2.0000      -6.585058      -179.1885 
   4   2.0000      -6.585057      -179.1885 
   5   2.0000      -6.584797      -179.1814 
   6   2.0000      -6.584641      -179.1772 
   7   2.0000      -6.584569      -179.1752 
   8   2.0000      -6.584568      -179.1752 
   9   2.0000      -6.584464      -179.1724 
  10   2.0000      -6.584463      -179.1724 
  11   2.0000      -6.584287      -179.1676 
  12   2.0000      -0.591129       -16.0854 
  13   2.0000      -0.540083       -14.6964 
  14   2.0000      -0.540079       -14.6963 
  15   2.0000      -0.439432       -11.9575 
  16   2.0000      -0.439430       -11.9575 
  17   2.0000      -0.385854       -10.4996 
  18   2.0000      -0.334973        -9.1151 
  19   2.0000      -0.334973        -9.1151 
  20   2.0000      -0.323221        -8.7953 
  21   2.0000      -0.313953        -8.5431 
  22   2.0000      -0.281429        -7.6581 
  23   2.0000      -0.256289        -6.9740 
  24   2.0000      -0.242973        -6.6116 
  25   2.0000      -0.242973        -6.6116 
  26   2.0000      -0.219831        -5.9819 
  27   2.0000      -0.219828        -5.9818 
  28   2.0000      -0.202801        -5.5185 
  29   2.0000      -0.202799        -5.5184 
  30   0.0000      -0.220613        -6.0032 
  31   0.0000      -0.220612        -6.0032 
  32   0.0000      -0.154935        -4.2160 
  33   0.0000      -0.142188        -3.8691 
  34   0.0000      -0.142185        -3.8691 
  35   0.0000      -0.117101        -3.1865 
  36   0.0000      -0.113870        -3.0986 
  37   0.0000      -0.089064        -2.4236 
  38   0.0000      -0.061534        -1.6744 
  39   0.0000      -0.061532        -1.6744 
  40   0.0000      -0.033906        -0.9226 
*Only the first 10 virtual orbitals were printed.

                    ********************************
                    * MULLIKEN POPULATION ANALYSIS *
                    ********************************

-----------------------
MULLIKEN ATOMIC CHARGES
-----------------------
   0 B :   -0.000072
   1 B :   -0.000071
   2 B :    0.000036
   3 B :    0.000037
   4 B :    0.000034
   5 B :    0.000030
   6 B :   -0.000069
   7 B :   -0.000067
   8 B :    0.000034
   9 B :    0.000035
  10 B :    0.000038
  11 B :    0.000035
Sum of atomic charges:   -0.0000000

--------------------------------
MULLIKEN REDUCED ORBITAL CHARGES
--------------------------------
  0 B s       :     3.152760  s :     3.152760
      pz      :     0.572642  p :     1.814019
      px      :     0.610240
      py      :     0.631137
      dz2     :     0.009861  d :     0.033293
      dxz     :     0.005073
      dyz     :     0.007130
      dx2y2   :     0.004787
      dxy     :     0.006442

  1 B s       :     3.152760  s :     3.152760
      pz      :     0.572643  p :     1.814018
      px      :     0.610239
      py      :     0.631137
      dz2     :     0.009861  d :     0.033293
      dxz     :     0.005073
      dyz     :     0.007130
      dx2y2   :     0.004787
      dxy     :     0.006442

  2 B s       :     3.152755  s :     3.152755
      pz      :     0.572695  p :     1.813918
      px      :     0.625893
      py      :     0.615330
      dz2     :     0.009861  d :     0.033291
      dxz     :     0.006615
      dyz     :     0.005586
      dx2y2   :     0.006028
      dxy     :     0.005201

  3 B s       :     3.152754  s :     3.152754
      pz      :     0.572695  p :     1.813918
      px      :     0.625893
      py      :     0.615330
      dz2     :     0.009861  d :     0.033291
      dxz     :     0.006615
      dyz     :     0.005586
      dx2y2   :     0.006028
      dxy     :     0.005201

  4 B s       :     3.152760  s :     3.152760
      pz      :     0.572691  p :     1.813916
      px      :     0.625894
      py      :     0.615331
      dz2     :     0.009861  d :     0.033291
      dxz     :     0.006615
      dyz     :     0.005586
      dx2y2   :     0.006028
      dxy     :     0.005201

  5 B s       :     3.152763  s :     3.152763
      pz      :     0.572691  p :     1.813916
      px      :     0.625894
      py      :     0.615331
      dz2     :     0.009861  d :     0.033291
      dxz     :     0.006615
      dyz     :     0.005586
      dx2y2   :     0.006028
      dxy     :     0.005201

  6 B s       :     3.152756  s :     3.152756
      pz      :     0.572645  p :     1.814020
      px      :     0.610239
      py      :     0.631137
      dz2     :     0.009861  d :     0.033293
      dxz     :     0.005073
      dyz     :     0.007130
      dx2y2   :     0.004787
      dxy     :     0.006442

  7 B s       :     3.152754  s :     3.152754
      pz      :     0.572644  p :     1.814020
      px      :     0.610239
      py      :     0.631137
      dz2     :     0.009861  d :     0.033293
      dxz     :     0.005073
      dyz     :     0.007130
      dx2y2   :     0.004787
      dxy     :     0.006442

  8 B s       :     3.152759  s :     3.152759
      pz      :     0.572693  p :     1.813917
      px      :     0.625893
      py      :     0.615331
      dz2     :     0.009861  d :     0.033291
      dxz     :     0.006615
      dyz     :     0.005586
      dx2y2   :     0.006028
      dxy     :     0.005201

  9 B s       :     3.152758  s :     3.152758
      pz      :     0.572693  p :     1.813917
      px      :     0.625894
      py      :     0.615330
      dz2     :     0.009861  d :     0.033291
      dxz     :     0.006615
      dyz     :     0.005586
      dx2y2   :     0.006028
      dxy     :     0.005201

 10 B s       :     3.152755  s :     3.152755
      pz      :     0.572693  p :     1.813917
      px      :     0.625894
      py      :     0.615330
      dz2     :     0.009861  d :     0.033291
      dxz     :     0.006615
      dyz     :     0.005586
      dx2y2   :     0.006028
      dxy     :     0.005201

 11 B s       :     3.152758  s :     3.152758
      pz      :     0.572693  p :     1.813917
      px      :     0.625893
      py      :     0.615330
      dz2     :     0.009861  d :     0.033291
      dxz     :     0.006615
      dyz     :     0.005586
      dx2y2   :     0.006028
      dxy     :     0.005201



                     *******************************
                     * LOEWDIN POPULATION ANALYSIS *
                     *******************************

----------------------
LOEWDIN ATOMIC CHARGES
----------------------
   0 B :   -0.000012
   1 B :   -0.000012
   2 B :    0.000006
   3 B :    0.000006
   4 B :    0.000006
   5 B :    0.000005
   6 B :   -0.000012
   7 B :   -0.000012
   8 B :    0.000006
   9 B :    0.000006
  10 B :    0.000006
  11 B :    0.000006

-------------------------------
LOEWDIN REDUCED ORBITAL CHARGES
-------------------------------
  0 B s       :     2.912734  s :     2.912734
      pz      :     0.695455  p :     2.006629
      px      :     0.615467
      py      :     0.695706
      dz2     :     0.031689  d :     0.080650
      dxz     :     0.009275
      dyz     :     0.013214
      dx2y2   :     0.010359
      dxy     :     0.016112

  1 B s       :     2.912734  s :     2.912734
      pz      :     0.695455  p :     2.006629
      px      :     0.615467
      py      :     0.695706
      dz2     :     0.031689  d :     0.080650
      dxz     :     0.009275
      dyz     :     0.013214
      dx2y2   :     0.010359
      dxy     :     0.016112

  2 B s       :     2.912731  s :     2.912731
      pz      :     0.695527  p :     2.006616
      px      :     0.675637
      py      :     0.635452
      dz2     :     0.031690  d :     0.080648
      dxz     :     0.012228
      dyz     :     0.010259
      dx2y2   :     0.014675
      dxy     :     0.011797

  3 B s       :     2.912731  s :     2.912731
      pz      :     0.695527  p :     2.006616
      px      :     0.675637
      py      :     0.635452
      dz2     :     0.031690  d :     0.080648
      dxz     :     0.012228
      dyz     :     0.010259
      dx2y2   :     0.014675
      dxy     :     0.011797

  4 B s       :     2.912731  s :     2.912731
      pz      :     0.695527  p :     2.006616
      px      :     0.675637
      py      :     0.635452
      dz2     :     0.031690  d :     0.080648
      dxz     :     0.012228
      dyz     :     0.010259
      dx2y2   :     0.014675
      dxy     :     0.011797

  5 B s       :     2.912731  s :     2.912731
      pz      :     0.695527  p :     2.006616
      px      :     0.675637
      py      :     0.635452
      dz2     :     0.031690  d :     0.080648
      dxz     :     0.012228
      dyz     :     0.010259
      dx2y2   :     0.014675
      dxy     :     0.011797

  6 B s       :     2.912734  s :     2.912734
      pz      :     0.695455  p :     2.006629
      px      :     0.615467
      py      :     0.695706
      dz2     :     0.031689  d :     0.080650
      dxz     :     0.009275
      dyz     :     0.013214
      dx2y2   :     0.010359
      dxy     :     0.016112

  7 B s       :     2.912734  s :     2.912734
      pz      :     0.695455  p :     2.006629
      px      :     0.615467
      py      :     0.695706
      dz2     :     0.031689  d :     0.080650
      dxz     :     0.009275
      dyz     :     0.013214
      dx2y2   :     0.010359
      dxy     :     0.016112

  8 B s       :     2.912730  s :     2.912730
      pz      :     0.695526  p :     2.006615
      px      :     0.675636
      py      :     0.635452
      dz2     :     0.031690  d :     0.080648
      dxz     :     0.012228
      dyz     :     0.010259
      dx2y2   :     0.014675
      dxy     :     0.011797

  9 B s       :     2.912730  s :     2.912730
      pz      :     0.695526  p :     2.006615
      px      :     0.675636
      py      :     0.635452
      dz2     :     0.031690  d :     0.080648
      dxz     :     0.012228
      dyz     :     0.010259
      dx2y2   :     0.014675
      dxy     :     0.011797

 10 B s       :     2.912730  s :     2.912730
      pz      :     0.695526  p :     2.006615
      px      :     0.675636
      py      :     0.635452
      dz2     :     0.031690  d :     0.080648
      dxz     :     0.012228
      dyz     :     0.010259
      dx2y2   :     0.014675
      dxy     :     0.011797

 11 B s       :     2.912730  s :     2.912730
      pz      :     0.695526  p :     2.006615
      px      :     0.675636
      py      :     0.635452
      dz2     :     0.031690  d :     0.080648
      dxz     :     0.012228
      dyz     :     0.010259
      dx2y2   :     0.014675
      dxy     :     0.011797



                      *****************************
                      * MAYER POPULATION ANALYSIS *
                      *****************************

  NA   - Mulliken gross atomic population
  ZA   - Total nuclear charge
  QA   - Mulliken gross atomic charge
  VA   - Mayer's total valence
  BVA  - Mayer's bonded valence
  FA   - Mayer's free valence

  ATOM       NA         ZA         QA         VA         BVA        FA
  0 B      5.0001     5.0000    -0.0001     3.5073     3.5073    -0.0000
  1 B      5.0001     5.0000    -0.0001     3.5073     3.5073    -0.0000
  2 B      5.0000     5.0000     0.0000     3.5071     3.5071    -0.0000
  3 B      5.0000     5.0000     0.0000     3.5071     3.5071    -0.0000
  4 B      5.0000     5.0000     0.0000     3.5071     3.5071    -0.0000
  5 B      5.0000     5.0000     0.0000     3.5071     3.5071    -0.0000
  6 B      5.0001     5.0000    -0.0001     3.5073     3.5073    -0.0000
  7 B      5.0001     5.0000    -0.0001     3.5073     3.5073    -0.0000
  8 B      5.0000     5.0000     0.0000     3.5071     3.5071    -0.0000
  9 B      5.0000     5.0000     0.0000     3.5071     3.5071    -0.0000
 10 B      5.0000     5.0000     0.0000     3.5071     3.5071    -0.0000
 11 B      5.0000     5.0000     0.0000     3.5071     3.5071    -0.0000

  Mayer bond orders larger than 0.100000
B(  0-B ,  1-B ) :   1.3394 B(  0-B ,  2-B ) :   0.7345 B(  0-B ,  3-B ) :   0.1749 
B(  0-B , 10-B ) :   0.7345 B(  0-B , 11-B ) :   0.1749 B(  1-B ,  2-B ) :   0.1749 
B(  1-B ,  3-B ) :   0.7345 B(  1-B , 10-B ) :   0.1749 B(  1-B , 11-B ) :   0.7345 
B(  2-B ,  3-B ) :   1.3393 B(  2-B ,  4-B ) :   0.7346 B(  2-B ,  5-B ) :   0.1748 
B(  3-B ,  4-B ) :   0.1748 B(  3-B ,  5-B ) :   0.7346 B(  4-B ,  5-B ) :   1.3393 
B(  4-B ,  6-B ) :   0.7345 B(  4-B ,  7-B ) :   0.1749 B(  5-B ,  6-B ) :   0.1749 
B(  5-B ,  7-B ) :   0.7345 B(  6-B ,  7-B ) :   1.3394 B(  6-B ,  8-B ) :   0.7345 
B(  6-B ,  9-B ) :   0.1749 B(  7-B ,  8-B ) :   0.1749 B(  7-B ,  9-B ) :   0.7345 
B(  8-B ,  9-B ) :   1.3393 B(  8-B , 10-B ) :   0.7346 B(  8-B , 11-B ) :   0.1748 
B(  9-B , 10-B ) :   0.1748 B(  9-B , 11-B ) :   0.7346 B( 10-B , 11-B ) :   1.3393 


-------
TIMINGS
-------

Total SCF time: 0 days 0 hours 0 min 7 sec 

Total time                  ....       7.645 sec
Sum of individual times     ....       7.260 sec  ( 95.0%)

SCF preparation             ....       0.678 sec  (  8.9%)
Fock matrix formation       ....       5.869 sec  ( 76.8%)
  Startup                   ....       0.012 sec  (  0.2% of F)
  Split-RI-J                ....       1.865 sec  ( 31.8% of F)
  XC integration            ....       3.952 sec  ( 67.3% of F)
    XC Preparation          ....       0.000 sec  (  0.0% of XC)
    Basis function eval.    ....       0.855 sec  ( 21.6% of XC)
    Density eval.           ....       0.620 sec  ( 15.7% of XC)
    XC-Functional eval.     ....       0.112 sec  (  2.8% of XC)
    XC-Potential eval.      ....       0.776 sec  ( 19.6% of XC)
Diagonalization             ....       0.000 sec  (  0.0%)
Density matrix formation    ....       0.110 sec  (  1.4%)
Total Energy calculation    ....       0.042 sec  (  0.6%)
Population analysis         ....       0.034 sec  (  0.4%)
Orbital Transformation      ....       0.036 sec  (  0.5%)
Orbital Orthonormalization  ....       0.000 sec  (  0.0%)
DIIS solution               ....       0.324 sec  (  4.2%)
SOSCF solution              ....       0.166 sec  (  2.2%)
Finished LeanSCF after   7.7 sec

Maximum memory used throughout the entire LEANSCF-calculation: 10.1 MB


-------------------------------------------------------------------------------
                          DFT DISPERSION CORRECTION                            
                                                                               
                              DFTD3 V3.1  Rev 1                                
                          USING Becke-Johnson damping                          
-------------------------------------------------------------------------------
The BP86 functional is recognized
Active option DFTDOPT                   ...         4   

molecular C6(AA) [au] = 6786.845757 


            DFT-D V3
 parameters
 s6 scaling factor         :     1.0000 
 a1 scaling factor         :     0.3946 
 s8 scaling factor         :     3.2822 
 a2 scaling factor         :     4.8516 
 ad hoc parameters k1-k3   :    16.0000     1.3333    -4.0000 

 Edisp/kcal,au: -31.500133966546  -0.050198653420 
 E6   /kcal   :  -9.058581009 
 E8   /kcal   : -22.441552958 
 % E8         :  71.242722274 

-------------------------   ----------------
Dispersion correction           -0.050198653
-------------------------   ----------------


-------------------------   --------------------
FINAL SINGLE POINT ENERGY      -297.144355920379
-------------------------   --------------------



           ************************************************************
           *        Program running with 8 parallel MPI-processes     *
           *              working on a common directory               *
           ************************************************************
------------------------------------------------------------------------------
                         ORCA SCF GRADIENT CALCULATION
------------------------------------------------------------------------------

Nuc. rep. gradient        (SHARK) ... done (  0.0 sec)
HCore & Overlap gradient  (SHARK) ... done (  0.0 sec)
Split-RIJ-J gradient      (SHARK) ... done (  0.4 sec)
XC gradient                       ... done (  0.9 sec)
Dispersion correction             ... done (  0.1 sec)

-------------------
DISPERSION GRADIENT
-------------------

   1   B   :   -0.005456742   -0.000000000   -0.000825400
   2   B   :   -0.005456742   -0.000000000    0.000825400
   3   B   :   -0.002728371   -0.004725677   -0.000825400
   4   B   :   -0.002728371   -0.004725677    0.000825400
   5   B   :    0.002728371   -0.004725677   -0.000825400
   6   B   :    0.002728371   -0.004725677    0.000825400
   7   B   :    0.005456742    0.000000000   -0.000825400
   8   B   :    0.005456742    0.000000000    0.000825400
   9   B   :    0.002728371    0.004725677   -0.000825400
  10   B   :    0.002728371    0.004725677    0.000825400
  11   B   :   -0.002728371    0.004725677   -0.000825400
  12   B   :   -0.002728371    0.004725677    0.000825400

Difference to translation invariance:
           :    0.0000000000    0.0000000000    0.0000000000

Difference to rotation invariance:
           :    0.0000000000    0.0000000000   -0.0000000000

Norm of the Dispersion gradient    ...    0.0191177361
RMS gradient                       ...    0.0031862893
MAX gradient                       ...    0.0054567420

------------------
CARTESIAN GRADIENT
------------------

   1   B   :    0.019749225   -0.000000022   -0.006236229
   2   B   :    0.019749226   -0.000000022    0.006236230
   3   B   :    0.009853607    0.017144591   -0.006256188
   4   B   :    0.009853605    0.017144595    0.006256187
   5   B   :   -0.009853610    0.017144599   -0.006256183
   6   B   :   -0.009853608    0.017144594    0.006256185
   7   B   :   -0.019749220   -0.000000022   -0.006236235
   8   B   :   -0.019749225   -0.000000022    0.006236232
   9   B   :   -0.009853571   -0.017144571   -0.006256261
  10   B   :   -0.009853566   -0.017144571    0.006256263
  11   B   :    0.009853568   -0.017144575   -0.006256265
  12   B   :    0.009853569   -0.017144573    0.006256263

Difference to translation invariance:
           :    0.0000000000    0.0000000000    0.0000000000

Difference to rotation invariance:
           :    0.0000000089   -0.0000000058   -0.0000000110

Norm of the Cartesian gradient     ...    0.0718126173
RMS gradient                       ...    0.0119687696
MAX gradient                       ...    0.0197492256

-------
TIMINGS
-------

Total SCF gradient time     ....        1.372 sec

Densities                   ....       0.001 sec  (  0.1%)
One electron gradient       ....       0.050 sec  (  3.6%)
RI-J Coulomb gradient       ....       0.374 sec  ( 27.3%)
XC gradient                 ....       0.880 sec  ( 64.2%)

Maximum memory used throughout the entire SCFGRAD-calculation: 29.7 MB
------------------------------------------------------------------------------
                         ORCA GEOMETRY RELAXATION STEP
------------------------------------------------------------------------------

Reading the OPT-File                    .... done
Getting information on internals        .... done
Copying old internal coords+grads       .... done
Making the new internal coordinates     .... (2022 redundants) done
Validating the new internal coordinates .... (2022 redundants) done
Calculating the B-matrix                .... done
Calculating the G,G- and P matrices     .... done
Transforming gradient to internals      .... done
Projecting the internal gradient        .... done
Number of atoms                         ....  12
Number of internal coordinates          .... 126
Current Energy                          ....  -297.144355920 Eh
Current gradient norm                   ....     0.071812617 Eh/bohr
Maximum allowed component of the step   ....  0.300
Current trust radius                    ....  0.300
Evaluating the initial hessian          ....  (Almloef) done
Projecting the Hessian                  .... done
Forming the augmented Hessian           .... done
Diagonalizing the augmented Hessian     .... done
Last element of RFO vector              ....  0.879323438
Lowest eigenvalues of augmented Hessian:
 -0.037552161  0.026409074  0.026409074  0.026863086  0.066067785
Length of the computed step             ....  0.541581200
Warning: the length of the step is outside the trust region - taking restricted step instead
The input lambda is                     ....     0.025409
   iter:   5  x=   -0.138325  g=    0.982679 f(x)=     0.014864
The output lambda is                    ....    -0.140156 (9 iterations)
The final length of the internal step   ....  0.300000000
Converting the step to Cartesian space:
 Initial RMS(Int)=    0.0267261242
Transforming coordinates:
 Iter   0:  RMS(Cart)=    0.0498830291 RMS(Int)=    0.0267261241
done
Storing new coordinates                 .... done

                                .--------------------.
          ----------------------|Geometry convergence|-------------------------
          Item                value                   Tolerance       Converged
          ---------------------------------------------------------------------
          RMS gradient        0.0062505315            0.0001000000      NO
          MAX gradient        0.0197849636            0.0003000000      NO
          RMS step            0.0267261242            0.0020000000      NO
          MAX step            0.0862791296            0.0040000000      NO
          -------------------------------------------------------------------------
          ........................................................
          Max(Bonds)      0.0457      Max(Angles)    0.01
          Max(Dihed)        0.01      Max(Improp)    0.00
          ---------------------------------------------------------------------

The optimization has not yet converged - more geometry cycles are needed


    ---------------------------------------------------------------------------
                         Redundant Internal Coordinates
                            (Angstroem and degrees)

        Definition                    Value    dE/dq     Step     New-Value
    ----------------------------------------------------------------------------
     1. B(B   1,B   0)                1.6000 -0.006244  0.0063    1.6063   
     2. B(B   2,B   0)                2.0000  0.019785 -0.0457    1.9543   
     3. B(B   3,B   1)                2.0000  0.019785 -0.0457    1.9543   
     4. B(B   3,B   2)                1.6000 -0.006252  0.0063    1.6063   
     5. B(B   4,B   2)                2.0000  0.019728 -0.0455    1.9545   
     6. B(B   5,B   4)                1.6000 -0.006252  0.0063    1.6063   
     7. B(B   5,B   3)                2.0000  0.019728 -0.0455    1.9545   
     8. B(B   6,B   4)                2.0000  0.019785 -0.0457    1.9543   
     9. B(B   7,B   6)                1.6000 -0.006244  0.0063    1.6063   
    10. B(B   7,B   5)                2.0000  0.019785 -0.0457    1.9543   
    11. B(B   8,B   6)                2.0000  0.019785 -0.0457    1.9543   
    12. B(B   9,B   8)                1.6000 -0.006253  0.0063    1.6063   
    13. B(B   9,B   7)                2.0000  0.019785 -0.0457    1.9543   
    14. B(B  10,B   8)                2.0000  0.019728 -0.0455    1.9545   
    15. B(B  10,B   0)                2.0000  0.019785 -0.0457    1.9543   
    16. B(B  11,B  10)                1.6000 -0.006253  0.0063    1.6063   
    17. B(B  11,B   9)                2.0000  0.019728 -0.0455    1.9545   
    18. B(B  11,B   1)                2.0000  0.019785 -0.0457    1.9543   
    19. A(B   1,B   0,B   2)           90.00 -0.000001    0.00     90.00   
    20. A(B   2,B   0,B  10)          120.00  0.000026   -0.01    119.99   
    21. A(B   1,B   0,B  10)           90.00 -0.000001    0.00     90.00   
    22. A(B   3,B   1,B  11)          120.00  0.000026   -0.01    119.99   
    23. A(B   0,B   1,B  11)           90.00 -0.000001    0.00     90.00   
    24. A(B   0,B   1,B   3)           90.00 -0.000001    0.00     90.00   
    25. A(B   3,B   2,B   4)           90.00  0.000000   -0.00     90.00   
    26. A(B   0,B   2,B   4)          120.00 -0.000013    0.00    120.00   
    27. A(B   0,B   2,B   3)           90.00  0.000001   -0.00     90.00   
    28. A(B   1,B   3,B   5)          120.00 -0.000013    0.00    120.00   
    29. A(B   2,B   3,B   5)           90.00  0.000000   -0.00     90.00   
    30. A(B   1,B   3,B   2)           90.00  0.000001   -0.00     90.00   
    31. A(B   5,B   4,B   6)           90.00  0.000001   -0.00     90.00   
    32. A(B   2,B   4,B   6)          120.00 -0.000013    0.00    120.00   
    33. A(B   2,B   4,B   5)           90.00 -0.000000    0.00     90.00   
    34. A(B   4,B   5,B   7)           90.00  0.000001   -0.00     90.00   
    35. A(B   3,B   5,B   7)          120.00 -0.000013    0.00    120.00   
    36. A(B   3,B   5,B   4)           90.00  0.000000   -0.00     90.00   
    37. A(B   4,B   6,B   7)           90.00 -0.000001    0.00     90.00   
    38. A(B   7,B   6,B   8)           90.00 -0.000001    0.00     90.00   
    39. A(B   4,B   6,B   8)          120.00  0.000026   -0.01    119.99   
    40. A(B   6,B   7,B   9)           90.00 -0.000001    0.00     90.00   
    41. A(B   5,B   7,B   9)          120.00  0.000026   -0.01    119.99   
    42. A(B   5,B   7,B   6)           90.00 -0.000001    0.00     90.00   
    43. A(B   9,B   8,B  10)           90.00 -0.000000    0.00     90.00   
    44. A(B   6,B   8,B  10)          120.00 -0.000013    0.00    120.00   
    45. A(B   6,B   8,B   9)           90.00  0.000001   -0.00     90.00   
    46. A(B   8,B   9,B  11)           90.00  0.000000   -0.00     90.00   
    47. A(B   7,B   9,B  11)          120.00 -0.000013    0.00    120.00   
    48. A(B   7,B   9,B   8)           90.00  0.000001   -0.00     90.00   
    49. A(B   0,B  10,B   8)          120.00 -0.000013    0.00    120.00   
    50. A(B   8,B  10,B  11)           90.00  0.000000   -0.00     90.00   
    51. A(B   0,B  10,B  11)           90.00  0.000001   -0.00     90.00   
    52. A(B   9,B  11,B  10)           90.00 -0.000000    0.00     90.00   
    53. A(B   1,B  11,B  10)           90.00  0.000001   -0.00     90.00   
    54. A(B   1,B  11,B   9)          120.00 -0.000013    0.00    120.00   
    55. D(B   3,B   1,B   0,B   2)     -0.00 -0.000000    0.00      0.00   
    56. D(B   3,B   1,B   0,B  10)    120.00  0.000026   -0.01    119.99   
    57. D(B  11,B   1,B   0,B   2)   -120.00 -0.000026    0.01   -119.99   
    58. D(B  11,B   1,B   0,B  10)      0.00 -0.000000    0.00      0.00   
    59. D(B   4,B   2,B   0,B   1)     90.00  0.000001   -0.00     90.00   
    60. D(B   3,B   2,B   0,B   1)      0.00  0.000000   -0.00     -0.00   
    61. D(B   3,B   2,B   0,B  10)    -90.00  0.000002   -0.00    -90.00   
    62. D(B   4,B   2,B   0,B  10)      0.00  0.000003   -0.00     -0.00   
    63. D(B   1,B   3,B   2,B   4)   -120.00  0.000013   -0.00   -120.00   
    64. D(B   5,B   3,B   1,B  11)      0.00 -0.000003    0.00      0.00   
    65. D(B   5,B   3,B   1,B   0)    -90.00 -0.000001    0.00    -90.00   
    66. D(B   1,B   3,B   2,B   0)     -0.00 -0.000000    0.00      0.00   
    67. D(B   5,B   3,B   2,B   0)    120.00 -0.000013    0.00    120.00   
    68. D(B   5,B   3,B   2,B   4)      0.00 -0.000000    0.00      0.00   
    69. D(B   2,B   3,B   1,B  11)     90.00 -0.000002    0.00     90.00   
    70. D(B   2,B   3,B   1,B   0)      0.00  0.000000   -0.00     -0.00   
    71. D(B   6,B   4,B   2,B   3)     90.00  0.000001   -0.00     90.00   
    72. D(B   6,B   4,B   2,B   0)      0.00 -0.000000    0.00      0.00   
    73. D(B   5,B   4,B   2,B   3)      0.00  0.000000   -0.00     -0.00   
    74. D(B   5,B   4,B   2,B   0)    -90.00 -0.000001    0.00    -90.00   
    75. D(B   7,B   5,B   4,B   6)      0.00  0.000000   -0.00     -0.00   
    76. D(B   3,B   5,B   4,B   6)   -120.00  0.000013   -0.00   -120.00   
    77. D(B   3,B   5,B   4,B   2)      0.00 -0.000000    0.00      0.00   
    78. D(B   7,B   5,B   3,B   2)    -90.00 -0.000001    0.00    -90.00   
    79. D(B   7,B   5,B   3,B   1)      0.00  0.000000   -0.00     -0.00   
    80. D(B   7,B   5,B   4,B   2)    120.00 -0.000013    0.00    120.00   
    81. D(B   4,B   5,B   3,B   2)      0.00  0.000000   -0.00     -0.00   
    82. D(B   4,B   5,B   3,B   1)     90.00  0.000001   -0.00     90.00   
    83. D(B   8,B   6,B   4,B   2)      0.00 -0.000003    0.00      0.00   
    84. D(B   7,B   6,B   4,B   5)      0.00 -0.000000    0.00      0.00   
    85. D(B   7,B   6,B   4,B   2)    -90.00 -0.000001    0.00    -90.00   
    86. D(B   8,B   6,B   4,B   5)     90.00 -0.000002    0.00     90.00   
    87. D(B   9,B   7,B   6,B   8)     -0.00 -0.000000    0.00      0.00   
    88. D(B   5,B   7,B   6,B   8)   -120.00 -0.000026    0.01   -119.99   
    89. D(B   5,B   7,B   6,B   4)      0.00  0.000000   -0.00     -0.00   
    90. D(B   9,B   7,B   5,B   4)    -90.00  0.000002   -0.00    -90.00   
    91. D(B   9,B   7,B   5,B   3)      0.00  0.000003   -0.00     -0.00   
    92. D(B   9,B   7,B   6,B   4)    120.00  0.000026   -0.01    119.99   
    93. D(B   6,B   7,B   5,B   4)      0.00 -0.000000    0.00      0.00   
    94. D(B   6,B   7,B   5,B   3)     90.00  0.000001   -0.00     90.00   
    95. D(B  10,B   8,B   6,B   7)     90.00  0.000001   -0.00     90.00   
    96. D(B  10,B   8,B   6,B   4)      0.00  0.000003   -0.00     -0.00   
    97. D(B   9,B   8,B   6,B   7)      0.00  0.000000   -0.00     -0.00   
    98. D(B   9,B   8,B   6,B   4)    -90.00  0.000002   -0.00    -90.00   
    99. D(B  11,B   9,B   8,B  10)      0.00 -0.000000    0.00      0.00   
   100. D(B  11,B   9,B   8,B   6)    120.00 -0.000013    0.00    120.00   
   101. D(B   7,B   9,B   8,B  10)   -120.00  0.000013   -0.00   -120.00   
   102. D(B   7,B   9,B   8,B   6)     -0.00 -0.000000    0.00      0.00   
   103. D(B  11,B   9,B   7,B   6)    -90.00 -0.000001    0.00    -90.00   
   104. D(B  11,B   9,B   7,B   5)      0.00 -0.000003    0.00      0.00   
   105. D(B   8,B   9,B   7,B   6)      0.00  0.000000   -0.00     -0.00   
   106. D(B   8,B   9,B   7,B   5)     90.00 -0.000002    0.00     90.00   
   107. D(B  11,B  10,B   8,B   9)      0.00  0.000000   -0.00     -0.00   
   108. D(B   0,B  10,B   8,B   9)     90.00  0.000001   -0.00     90.00   
   109. D(B   0,B  10,B   8,B   6)      0.00  0.000000   -0.00     -0.00   
   110. D(B  11,B  10,B   0,B   2)     90.00 -0.000002    0.00     90.00   
   111. D(B  11,B  10,B   0,B   1)      0.00  0.000000   -0.00     -0.00   
   112. D(B  11,B  10,B   8,B   6)    -90.00 -0.000001    0.00    -90.00   
   113. D(B   8,B  10,B   0,B   2)      0.00 -0.000003    0.00      0.00   
   114. D(B   8,B  10,B   0,B   1)    -90.00 -0.000001    0.00    -90.00   
   115. D(B  10,B  11,B   1,B   0)      0.00  0.000000   -0.00     -0.00   
   116. D(B   9,B  11,B   1,B   3)      0.00  0.000003   -0.00     -0.00   
   117. D(B   9,B  11,B   1,B   0)     90.00  0.000001   -0.00     90.00   
   118. D(B   9,B  11,B  10,B   8)      0.00 -0.000000    0.00      0.00   
   119. D(B   1,B  11,B  10,B   8)    120.00 -0.000013    0.00    120.00   
   120. D(B   1,B  11,B  10,B   0)      0.00 -0.000000    0.00      0.00   
   121. D(B  10,B  11,B   9,B   8)      0.00  0.000000   -0.00     -0.00   
   122. D(B  10,B  11,B   9,B   7)     90.00  0.000001   -0.00     90.00   
   123. D(B   1,B  11,B   9,B   8)    -90.00 -0.000001    0.00    -90.00   
   124. D(B   9,B  11,B  10,B   0)   -120.00  0.000013   -0.00   -120.00   
   125. D(B   1,B  11,B   9,B   7)      0.00 -0.000000   -0.00     -0.00   
   126. D(B  10,B  11,B   1,B   3)    -90.00  0.000002   -0.00    -90.00   
    ----------------------------------------------------------------------------

Geometry step timings:
Preparation and reading OPT file:      0.000 s ( 1.071 %)
Internal coordinates            :      0.000 s ( 0.959 %)
B/P matrices and projection     :      0.002 s (21.997 %)
[...]

  8 B s       :     2.892402  s :     2.892402
      pz      :     0.717095  p :     2.059622
      px      :     0.695522
      py      :     0.647004
      dz2     :     0.011538  d :     0.048340
      dxz     :     0.010951
      dyz     :     0.009260
      dx2y2   :     0.009310
      dxy     :     0.007282

  9 B s       :     2.892450  s :     2.892450
      pz      :     0.717083  p :     2.059487
      px      :     0.695493
      py      :     0.646912
      dz2     :     0.011538  d :     0.048340
      dxz     :     0.010951
      dyz     :     0.009260
      dx2y2   :     0.009310
      dxy     :     0.007282

 10 B s       :     2.892460  s :     2.892460
      pz      :     0.717083  p :     2.059515
      px      :     0.695488
      py      :     0.646944
      dz2     :     0.011538  d :     0.048340
      dxz     :     0.010951
      dyz     :     0.009260
      dx2y2   :     0.009310
      dxy     :     0.007282

 11 B s       :     2.892428  s :     2.892428
      pz      :     0.717098  p :     2.059641
      px      :     0.695518
      py      :     0.647025
      dz2     :     0.011538  d :     0.048341
      dxz     :     0.010951
      dyz     :     0.009260
      dx2y2   :     0.009310
      dxy     :     0.007282



                     *******************************
                     * LOEWDIN POPULATION ANALYSIS *
                     *******************************

----------------------
LOEWDIN ATOMIC CHARGES
----------------------
   0 B :   -0.000128
   1 B :   -0.000134
   2 B :    0.000068
   3 B :    0.000063
   4 B :    0.000067
   5 B :    0.000061
   6 B :   -0.000126
   7 B :   -0.000132
   8 B :    0.000067
   9 B :    0.000062
  10 B :    0.000069
  11 B :    0.000063

-------------------------------
LOEWDIN REDUCED ORBITAL CHARGES
-------------------------------
  0 B s       :     2.817900  s :     2.817900
      pz      :     0.729153  p :     2.068398
      px      :     0.591325
      py      :     0.747920
      dz2     :     0.032236  d :     0.113830
      dxz     :     0.013059
      dyz     :     0.024688
      dx2y2   :     0.015452
      dxy     :     0.028396

  1 B s       :     2.817902  s :     2.817902
      pz      :     0.729154  p :     2.068403
      px      :     0.591328
      py      :     0.747921
      dz2     :     0.032236  d :     0.113830
      dxz     :     0.013059
      dyz     :     0.024688
      dx2y2   :     0.015452
      dxy     :     0.028396

  2 B s       :     2.818115  s :     2.818115
      pz      :     0.728983  p :     2.068059
      px      :     0.708612
      py      :     0.630464
      dz2     :     0.032218  d :     0.113758
      dxz     :     0.021753
      dyz     :     0.015960
      dx2y2   :     0.025152
      dxy     :     0.018675

  3 B s       :     2.818115  s :     2.818115
      pz      :     0.728986  p :     2.068064
      px      :     0.708612
      py      :     0.630467
      dz2     :     0.032218  d :     0.113758
      dxz     :     0.021753
      dyz     :     0.015959
      dx2y2   :     0.025152
      dxy     :     0.018675

  4 B s       :     2.818114  s :     2.818114
      pz      :     0.728984  p :     2.068061
      px      :     0.708611
      py      :     0.630466
      dz2     :     0.032218  d :     0.113758
      dxz     :     0.021753
      dyz     :     0.015960
      dx2y2   :     0.025152
      dxy     :     0.018675

  5 B s       :     2.818116  s :     2.818116
      pz      :     0.728984  p :     2.068066
      px      :     0.708613
      py      :     0.630469
      dz2     :     0.032218  d :     0.113758
      dxz     :     0.021753
      dyz     :     0.015960
      dx2y2   :     0.025152
      dxy     :     0.018674

  6 B s       :     2.817903  s :     2.817903
      pz      :     0.729153  p :     2.068394
      px      :     0.591321
      py      :     0.747921
      dz2     :     0.032236  d :     0.113829
      dxz     :     0.013058
      dyz     :     0.024688
      dx2y2   :     0.015452
      dxy     :     0.028395

  7 B s       :     2.817903  s :     2.817903
      pz      :     0.729155  p :     2.068400
      px      :     0.591323
      py      :     0.747922
      dz2     :     0.032236  d :     0.113829
      dxz     :     0.013058
      dyz     :     0.024688
      dx2y2   :     0.015452
      dxy     :     0.028396

  8 B s       :     2.818114  s :     2.818114
      pz      :     0.728980  p :     2.068061
      px      :     0.708616
      py      :     0.630465
      dz2     :     0.032218  d :     0.113758
      dxz     :     0.021753
      dyz     :     0.015960
      dx2y2   :     0.025152
      dxy     :     0.018674

  9 B s       :     2.818115  s :     2.818115
      pz      :     0.728982  p :     2.068066
      px      :     0.708616
      py      :     0.630469
      dz2     :     0.032218  d :     0.113757
      dxz     :     0.021753
      dyz     :     0.015959
      dx2y2   :     0.025152
      dxy     :     0.018674

 10 B s       :     2.818114  s :     2.818114
      pz      :     0.728981  p :     2.068059
      px      :     0.708615
      py      :     0.630463
      dz2     :     0.032218  d :     0.113758
      dxz     :     0.021753
      dyz     :     0.015959
      dx2y2   :     0.025152
      dxy     :     0.018675

 11 B s       :     2.818114  s :     2.818114
      pz      :     0.728982  p :     2.068065
      px      :     0.708617
      py      :     0.630466
      dz2     :     0.032218  d :     0.113758
      dxz     :     0.021753
      dyz     :     0.015959
      dx2y2   :     0.025152
      dxy     :     0.018675



                      *****************************
                      * MAYER POPULATION ANALYSIS *
                      *****************************

  NA   - Mulliken gross atomic population
  ZA   - Total nuclear charge
  QA   - Mulliken gross atomic charge
  VA   - Mayer's total valence
  BVA  - Mayer's bonded valence
  FA   - Mayer's free valence

  ATOM       NA         ZA         QA         VA         BVA        FA
  0 B      4.9993     5.0000     0.0007     4.2802     4.2802    -0.0000
  1 B      4.9992     5.0000     0.0008     4.2800     4.2800    -0.0000
  2 B      5.0004     5.0000    -0.0004     4.2793     4.2793    -0.0000
  3 B      5.0004     5.0000    -0.0004     4.2794     4.2794     0.0000
  4 B      5.0003     5.0000    -0.0003     4.2794     4.2794    -0.0000
  5 B      5.0003     5.0000    -0.0003     4.2792     4.2792    -0.0000
  6 B      4.9993     5.0000     0.0007     4.2799     4.2799     0.0000
  7 B      4.9994     5.0000     0.0006     4.2801     4.2801     0.0000
  8 B      5.0004     5.0000    -0.0004     4.2796     4.2796     0.0000
  9 B      5.0003     5.0000    -0.0003     4.2793     4.2793     0.0000
 10 B      5.0003     5.0000    -0.0003     4.2795     4.2795    -0.0000
 11 B      5.0004     5.0000    -0.0004     4.2797     4.2797     0.0000

  Mayer bond orders larger than 0.100000
B(  0-B ,  1-B ) :   1.1369 B(  0-B ,  2-B ) :   0.9894 B(  0-B ,  3-B ) :   0.2381 
B(  0-B ,  4-B ) :   0.1919 B(  0-B ,  7-B ) :   0.1131 B(  0-B ,  8-B ) :   0.1919 
B(  0-B , 10-B ) :   0.9894 B(  0-B , 11-B ) :   0.2381 B(  1-B ,  2-B ) :   0.2381 
B(  1-B ,  3-B ) :   0.9894 B(  1-B ,  5-B ) :   0.1918 B(  1-B ,  6-B ) :   0.1131 
B(  1-B ,  9-B ) :   0.1918 B(  1-B , 10-B ) :   0.2381 B(  1-B , 11-B ) :   0.9894 
B(  2-B ,  3-B ) :   1.1361 B(  2-B ,  4-B ) :   0.9887 B(  2-B ,  5-B ) :   0.2383 
B(  2-B ,  6-B ) :   0.1919 B(  2-B ,  9-B ) :   0.1132 B(  2-B , 10-B ) :   0.1925 
B(  3-B ,  4-B ) :   0.2382 B(  3-B ,  5-B ) :   0.9887 B(  3-B ,  7-B ) :   0.1920 
B(  3-B ,  8-B ) :   0.1133 B(  3-B , 11-B ) :   0.1926 B(  4-B ,  5-B ) :   1.1361 
B(  4-B ,  6-B ) :   0.9893 B(  4-B ,  7-B ) :   0.2381 B(  4-B ,  8-B ) :   0.1925 
B(  4-B , 11-B ) :   0.1133 B(  5-B ,  6-B ) :   0.2381 B(  5-B ,  7-B ) :   0.9893 
B(  5-B ,  9-B ) :   0.1924 B(  5-B , 10-B ) :   0.1132 B(  6-B ,  7-B ) :   1.1368 
B(  6-B ,  8-B ) :   0.9894 B(  6-B ,  9-B ) :   0.2381 B(  6-B , 10-B ) :   0.1919 
B(  7-B ,  8-B ) :   0.2381 B(  7-B ,  9-B ) :   0.9893 B(  7-B , 11-B ) :   0.1920 
B(  8-B ,  9-B ) :   1.1362 B(  8-B , 10-B ) :   0.9888 B(  8-B , 11-B ) :   0.2382 
B(  9-B , 10-B ) :   0.2382 B(  9-B , 11-B ) :   0.9888 B( 10-B , 11-B ) :   1.1362 


-------
TIMINGS
-------

Total SCF time: 0 days 0 hours 0 min 3 sec 

Total time                  ....       3.770 sec
Sum of individual times     ....       3.216 sec  ( 85.3%)

SCF preparation             ....       0.587 sec  ( 15.6%)
Fock matrix formation       ....       2.256 sec  ( 59.8%)
  Startup                   ....       0.009 sec  (  0.4% of F)
  Split-RI-J                ....       0.826 sec  ( 36.6% of F)
  XC integration            ....       1.580 sec  ( 70.0% of F)
    XC Preparation          ....       0.000 sec  (  0.0% of XC)
    Basis function eval.    ....       0.283 sec  ( 17.9% of XC)
    Density eval.           ....       0.214 sec  ( 13.5% of XC)
    XC-Functional eval.     ....       0.034 sec  (  2.1% of XC)
    XC-Potential eval.      ....       0.237 sec  ( 15.0% of XC)
Diagonalization             ....       0.000 sec  (  0.0%)
Density matrix formation    ....       0.045 sec  (  1.2%)
Total Energy calculation    ....       0.049 sec  (  1.3%)
Population analysis         ....       0.081 sec  (  2.2%)
Orbital Transformation      ....       0.038 sec  (  1.0%)
Orbital Orthonormalization  ....       0.000 sec  (  0.0%)
DIIS solution               ....       0.026 sec  (  0.7%)
SOSCF solution              ....       0.134 sec  (  3.6%)
Finished LeanSCF after   3.8 sec

Maximum memory used throughout the entire LEANSCF-calculation: 10.6 MB


-------------------------------------------------------------------------------
                          DFT DISPERSION CORRECTION                            
                                                                               
                              DFTD3 V3.1  Rev 1                                
                          USING Becke-Johnson damping                          
-------------------------------------------------------------------------------
The BP86 functional is recognized
Active option DFTDOPT                   ...         4   

molecular C6(AA) [au] = 4540.050333 


            DFT-D V3
 parameters
 s6 scaling factor         :     1.0000 
 a1 scaling factor         :     0.3946 
 s8 scaling factor         :     3.2822 
 a2 scaling factor         :     4.8516 
 ad hoc parameters k1-k3   :    16.0000     1.3333    -4.0000 

 Edisp/kcal,au: -24.644189003511  -0.039273010836 
 E6   /kcal   :  -6.988449695 
 E8   /kcal   : -17.655739309 
 % E8         :  71.642606322 

-------------------------   ----------------
Dispersion correction           -0.039273011
-------------------------   ----------------


-------------------------   --------------------
FINAL SINGLE POINT ENERGY      -297.423278814272
-------------------------   --------------------

                                *** OPTIMIZATION RUN DONE ***



           ************************************************************
           *        Program running with 8 parallel MPI-processes     *
           *              working on a common directory               *
           ************************************************************

------------------------------------------------------------------------------
                              ORCA PROPERTY CALCULATIONS
------------------------------------------------------------------------------

GBWName                                 ... hex_prism_nn1.60.gbw
Number of atoms                         ...     12
Number of basis functions               ...    168
Max core memory                         ...   2500 MB

Electric properties:
Dipole moment                           ... YES
Quadrupole moment                       ...  NO
Static polarizability (Dipole/Dipole)   ...  NO
Static polarizability (Dipole/Quad.)    ...  NO
Static polarizability (Quad./Quad.)     ...  NO
Static polarizability (Velocity)        ...  NO
Static hyperpolarizability              ...  NO

Atomic electric properties:
Dipole moment                           ...  NO
Quadrupole moment                       ...  NO
Static polarizability                   ...  NO

Choice of electric origin               ... Center of mass
Position of electric origin             ...     0.000000     0.000000    -0.000000

General magnetic properties:
Magnetizability                         ...  NO

EPR properties:
g-Tensor (aka g-matrix)                 ...  NO
Zero-Field splitting spin-orbit         ...  NO
Zero-field splitting spin-spin          ...  NO
Hyperfine couplings                     ...  NO (   0 nuclei)
Quadrupole couplings                    ...  NO (   0 nuclei)
Contact density                         ...  NO (   0 nuclei)

NMR properties:
Chemical shifts                         ...  NO (   0 nuclei)
Spin-rotation constants                 ...  NO (   0 nuclei)
Spin-spin couplings                     ...  NO (   0 nuclei,    0 pairs)

Choice of magnetic origin               ... GIAO
Position of magnetic origin             ...     0.000000     0.000000     0.000000

Properties with geometric perturbations:
SCF Hessian                             ...  NO
IR spectrum                             ...  NO
VCD spectrum                            ...  NO
X-ray spectroscopy properties:
SCF XES/XAS/RIXS spectra                ...  NO

SCF SOC stabilization energy            ...  NO
Diagonal Born-Oppenheimer correction    ...  NO

-------------
DIPOLE MOMENT
-------------

Method             : SCF
Type of density    : Electron Density
Multiplicity       :   1
Irrep              :   0
Energy             :  -297.3840058034362528 Eh
Basis              : AO
                                X                 Y                 Z
Electronic contribution:      0.000002304      -0.000003323       0.000069623
Nuclear contribution   :     -0.000000000       0.000000000      -0.000000000
                        -----------------------------------------
Total Dipole Moment    :      0.000002304      -0.000003323       0.000069623
                        -----------------------------------------
Magnitude (a.u.)       :      0.000069740
Magnitude (Debye)      :      0.000177266



--------------------
Rotational spectrum 
--------------------
 
Rotational constants in cm-1:             0.060785             0.060781             0.045961 
Rotational constants in MHz :          1822.296587          1822.166238          1377.884156 

Dipole components along the rotational axes: 
x,y,z [a.u.] :     0.000002     0.000003     0.000070 
x,y,z [Debye]:     0.000006     0.000008     0.000177 

 

Dipole moment calculation done in   0.0 sec 

Maximum memory used throughout the entire PROP-calculation: 8.3 MB

--------------------------------
SUGGESTED CITATIONS FOR THIS RUN
--------------------------------

Below you find a list of papers that are relevant to this ORCA run
We neither can nor want to force you to cite these papers, but we appreciate if you do
You receive ORCA, which is the product of decades of hard work by many enthusiastic individuals, for free
The only thing we kindly ask in return is that you cite our papers,
We deeply appreciate it, if you show your appreciation for ORCA by not just citing the generic ORCA reference.

Please note that relegating all ORCA citations to the supporting information does *not* help us.
SI sections are not indexed - citations you put there will not count into any citation statistics
But we need these citations in order to attract the funding resources that allow us to do what we are doing

Therefore, if you are a happy ORCA user, please consider citing a few of the papers listed below in the main body of your paper

In addition to the list printed below, the program has created the file hex_prism_nn1.60.bibtex that contains the list in bibtex format
You can import this file easily into all common literature databanks and citation aid programs

It goes without saying that in many instances, there are alternative algorithms to achieve similar
results as the ones you have gotten from ORCA. It is, of course, also the case that in some instances
ORCA just re-implements algorithms worked out by others. We are fully aware of that and we are also
fully appreciative of our colleagues work. Hence this citation list should not be read as indicating
that the listed papers, which are focused on our own work, are the only ones worth citing. It simply
meant to make it easier for users to cite ORCA specific papers. It is not a substitute for doing your
own literature research and citing the relevant literature in a scientifically appropriate manner.

List of essential papers. We consider these as the minimum necessary citations

  1. Neese, F.
     Software update: the ORCA program system, version 6.0
     WIRES Comput. Molec. Sci. 2025 15(1), e70019
     doi.org/10.1002/wcms.70019

List of papers to cite with high priority. The work reported in these papers was absolutely
necessary for this run to complete.
Our perspective: the developers of density functionals and basis sets usually get cited in chemistry papers
Good! But without the algorithms to do something with them, the functionals or basis sets would not do anything.
Hence, in our opinion, the algorithm design and method developments papers are equally worthy of getting cited

  1. Neese, F.
     An improvement of the resolution of the identity approximation for the formation of the Coulomb matrix
     J. Comp. Chem. 2003 24(14), 1740-1747
     doi.org/10.1002/jcc.10318
  2. Grimme, S.; Antony, J.; Ehrlich, S.; Krieg, H.
     A consistent and accurate ab initio parametrization of density functional dispersion correction (DFT-D) for the 94 elements H-Pu
     J. Chem. Phys. 2010 132 , 154104
     doi.org/10.1063/1.3382344
  3. Grimme, S.; Ehrlich, S.; Goerigk, L.
     Effect of the damping function in dispersion corrected density functional theory
     J. Comput. Chem. 2011 32(7), 1456-1465
     doi.org/10.1002/jcc.21759
  4. Neese, F.
     The SHARK Integral Generation and Digestion System
     J. Comp. Chem. 2022 44(3), 381
     doi.org/10.1002/jcc.26942

List of suggested additional citations. These are papers that are important in the 'surrounding' of 
of this run, or papers that preceded the highly important papers. If you like your results we are grateful for a citation.

  1. Neese, F.
     The ORCA program system
     WIRES Comput. Molec. Sci. 2012 2(1), 73-78
     doi.org/10.1002/wcms.81
  2. Neese, F.
     Software update: the ORCA program system, version 4.0
     WIRES Comput. Molec. Sci. 2018 8(1), 1-6
     doi.org/10.1002/wcms.1327
  3. Neese, F.; Wennmohs, F.; Becker, U.; Riplinger, C.
     The ORCA quantum chemistry program package
     J. Chem. Phys. 2020 152(22), 224108
     doi.org/10.1063/5.0004608
  4. Neese, F.
     Software update: The ORCA program system—Version 5.0
     WIRES Comput. Molec. Sci. 2022 12(1), e1606
     doi.org/10.1002/wcms.1606

List of optional additional citations

  1. Neese, F.
     Approximate second-order SCF convergence for spin unrestricted wavefunctions
     Chem. Phys. Lett. 2000 325(1-3), 93-98
     doi.org/10.1016/s0009-2614(00)00662-x

Timings for individual modules:

Sum of individual times          ...      120.342 sec (=   2.006 min)
Startup calculation              ...       16.234 sec (=   0.271 min)  13.5 %
SCF iterations                   ...       83.560 sec (=   1.393 min)  69.4 %
Property calculations            ...        0.767 sec (=   0.013 min)   0.6 %
SCF Gradient evaluation          ...       19.705 sec (=   0.328 min)  16.4 %
Geometry relaxation              ...        0.076 sec (=   0.001 min)   0.1 %
                             ****ORCA TERMINATED NORMALLY****
TOTAL RUN TIME: 0 days 0 hours 2 minutes 7 seconds 877 msec
