
                                 *****************
                                 * O   R   C   A *
                                 *****************

                                            #,                                       
                                            ###                                      
                                            ####                                     
                                            #####                                    
                                            ######                                   
                                           ########,                                 
                                     ,,################,,,,,                         
                               ,,#################################,,                 
                          ,,##########################################,,             
                       ,#########################################, ''#####,          
                    ,#############################################,,   '####,        
                  ,##################################################,,,,####,       
                ,###########''''           ''''###############################       
              ,#####''   ,,,,##########,,,,          '''####'''          '####       
            ,##' ,,,,###########################,,,                        '##       
           ' ,,###''''                  '''############,,,                           
         ,,##''                                '''############,,,,        ,,,,,,###''
      ,#''                                            '''#######################'''  
     '                                                          ''''####''''         
             ,#######,   #######,   ,#######,      ##                                
            ,#'     '#,  ##    ##  ,#'     '#,    #''#        ,####,    ,#,          
            ##       ##  ##   ,#'  ##            #'  '#       #'       ,# #          
            ##       ##  #######   ##           ,######,      #####,      #          
            '#,     ,#'  ##    ##  '#,     ,#' ,#      #,     #,   #      #          
             '#######'   ##     ##  '#######'  #'      '#     '####' #    #          



                #########################################################
                #                        -***-                          #
                #          Department of theory and spectroscopy        #
                #                                                       #
                #                      Frank Neese                      #
                #                                                       #
                #     Directorship, Architecture, Infrastructure        #
                #                    SHARK, DRIVERS                     #
                #        Core code/Algorithms in most modules           #
                #                                                       #
                #        Max Planck Institute fuer Kohlenforschung      #
                #                Kaiser Wilhelm Platz 1                 #
                #                 D-45470 Muelheim/Ruhr                 #
                #                      Germany                          #
                #                                                       #
                #                  All rights reserved                  #
                #                        -***-                          #
                #########################################################


                         Program Version 6.1.1  -  RELEASE   -
                                (GIT: $487d211c$)
                          ($2025-11-21 10:33:24 +0100$)
                                                                         
                                  - NO-DMRG VERSION -                    
                                                                         


 With contributions from (in alphabetic order):
[Max-Planck-Institut fuer Kohlenforschung]                               
  Daniel Aravena         : Magnetic Suceptibility                        
  Michael Atanasov       : Ab Initio Ligand Field Theory (pilot matlab implementation)
  Alexander A. Auer      : GIAO ZORA, VPT2 properties, NMR spectrum      
  Ute Becker             : All parallelization in ORCA, NUMFREQ, NUMCALC 
  Giovanni Bistoni       : ED, misc. LED, open-shell LED, HFLD           
  Dmytro Bykov           : pre 5.0 version of the SCF Hessian            
  Marcos Casanova-Páez   : Triplet and SCS-CIS(D). UHF-(DLPNO)-IP/EA/STEOM-CCSD. UHF-CVS-IP/STEOM-CCSD   
  Vijay G. Chilkuri      : MRCI spin determinant printing, contributions to CSF-ICE 
  Pauline Colinet        : FMM embedding                                 
  Dipayan Datta          : RHF DLPNO-CCSD density                        
  Achintya Kumar Dutta   : EOM-CC, STEOM-CC                              
  Nicolas Foglia         : Exact transition moments, OPA infrastructure, MCD improvements    
  Dmitry Ganyushin       : Spin-Orbit,Spin-Spin,Magnetic field MRCI      
  Miquel Garcia-Rates    : C-PCM and meta-GGA Hessian, CCSD/C-PCM, Gaussian charge scheme 
  Tiago L. C. Gouveia    : GS-ROHF, GS-ROCIS                             
  Yang Guo               : DLPNO-NEVPT2, F12-NEVPT2, CIM, IAO-localization        
  Andreas Hansen         : Spin unrestricted coupled pair/coupled cluster methods 
  Ingolf Harden          : AUTO-CI MPn and infrastructure                
  Benjamin Helmich-Paris : MC-RPA, TRAH-(SCF,CASSCF), AVAS, COSX integrals, SCF dyn. polar., MC-PDFT, srDFT 
  Lee Huntington         : MR-EOM, pCC                                   
  Robert Izsak           : Overlap fitted RIJCOSX, COSX-SCS-MP3, EOM     
  Riya Kayal             : Wick's Theorem for AUTO-CI, AUTO-CI UHF-CCSDT 
  Emily Kempfer          : AUTO-CI RHF CISDT and CCSDT, approximate NEVPT4
  Christian Kollmar      : KDIIS, OOCD, Brueckner-CCSD(T), CCSD density, CASPT2, CASPT2-K, improved NEVPT2 
  Axel Koslowski         : Symmetry handling                             
  Simone Kossmann        : meta-GGA functionals, TD-DFT gradient, OOMP2, (MP2 Hessian; deprecated post 5.0) 
  Lucas Lang             : DCDCAS, Hyperfine gauge corrections, ICE-SOC+SSC
  Marvin Lechner         : AUTO-CI (C++ implementation), FIC-MRCC        
  Spencer Leger          : CASSCF response                               
  Dagmar Lenk            : GEPOL surface, SMD, ORCA-2-JSON               
  Dimitrios Liakos       : Extrapolation schemes; Compound Job, Property file
  Dimitrios Manganas     : Further ROCIS development; embedding schemes. LFT, Crystal Embedding 
  Dimitrios Pantazis     : SARC Basis sets                               
  Anastasios Papadopoulos: AUTO-CI, single reference methods and gradients 
  Taras Petrenko         : pre 6.0 DFT Hessian and TD-DFT gradient,  ECA, NRVS 
  Petra Pikulova         : Analytic Raman intensities                    
  Peter Pinski           : DLPNO-MP2, DLPNO-MP2 Gradient                 
  Shashank Vittal Rao    : ES-AILFT, MagRelax                            
  Christoph Reimann      : Effective Core Potentials                     
  Marius Retegan         : Local ZFS, SOC                                
  Christoph Riplinger    : Optimizer, TS searches, QM/MM, DLPNO-CCSD(T), (RO)-DLPNO pert. Triples 
  Michael Roemelt        : Original ROCIS implementation, recursive CI coupling coefficients
  Masaaki Saitow         : Open-shell DLPNO-CCSD energy and density      
  Barbara Sandhoefer     : DKH picture change effects                    
  Yorick L. A. Schmerwitz: GMF and freeze-and-release deltaSCF, NEB S-IDPP initial path                    
  Kantharuban Sivalingam : CASSCF convergence/infrastructure, NEVPT2, NEVPT3, NEVPT4(SD), FIC-MRCI and CEPA variants
  Bernardo de Souza      : ESD, SOC TD-DFT                               
  Georgi L. Stoychev     : AutoAux, RI-MP2 NMR, DLPNO-MP2 response, X2C  
  Van Anh Tran           : RI-MP2 g-tensors                              
  Willem Van den Heuvel  : Paramagnetic NMR                              
  Zikuan Wang            : NOTCH, Electric field optimization            
  Frank Wennmohs         : Technical directorship and infrastructure     
  Hang Xu                : AUTO-CI-Response properties                   
                                                                         
[FACCTs GmbH]                                                            
  Markus Bursch, Nicolas Foglia, Miquel Garcia-Rates, Ingolf Harden, Hagen Neugebauer, Anastasios Papadopoulos, 
  Christoph Riplinger, Bernardo de Souza, Georgi L. Stoychev                                                    
                                                                 
  APM, various basis sets, CI-OPT, improved COSX, DLPNO-Multilevel,           
  DOCKER, DRACO, updates on ESD, Fragmentator, GOAT, IRC, LR-CPCM, L-BFGS, MBIS, meta-GGA TD-DFT gradient, ML-optimized integration grids, 
  MM, NACMEs, nearIR, NEB, NEB-TS, NL-DFT gradient (VV10), 2- and 3-layer-ONIOM, interface openCOSMO-RS, QMMM,   
  Crystal-QMMM, RESP, rigid body optimization, SF, symmetry and pop. for TD-DFT, various functionals, SOLVATOR                                   
                                                                         
[Other institutions]                                                     
  V. Asgeirsson          : NEB                                           
  Christoph Bannwarth    : sTDA-DFT, sTD-DFT, PBEh-3c, B97-3c, D3        
  Giovanni Bistoni       : ETS/NOCV, ADLD/ADEX, COVALED                  
  Martin Brehm           : Molecular dynamics                            
  Ronald Cardenas        : ETS/NOCV                                      
  Martina Colucci        : COVALED                                       
  Sebastian Ehlert       : rSCAN, r2SCAN, r2SCAN-3c, D4, dhf basis sets  
  Marvin Friede          : D4 for Fr, Ra, Ac-Lr                          
  Lars Goerigk           : TD-DFT with DH, B97 family of functionals     
  Stefan Grimme          : VdW corrections, initial TS optimization, DFT functionals, gCP, sTDA/sTD-DF 
  Waldemar Hujo          : DFT-NL                                        
  H. Jonsson             : NEB                                           
  Holger Kruse           : gCP                                           
  Marcel Mueller         : wB97X-3c, vDZP basis set                      
  Hagen Neugebauer       : wr2SCAN, Native XTB                           
  Gianluca Regni         : ADLD/ADEX                                     
  Tobias Risthaus        : pre 6.0 range-separated hybrid DFT and stability analysis
  Lukas Wittmann         : regularized MP2, r2SCAN double-hybrids, wr2SCAN        
                                                                         
We gratefully acknowledge several colleagues who have allowed us to      
interface, adapt or use parts of their codes:                            
  Ed Valeev, F. Pavosevic, A. Kumar             : LibInt (2-el integral package), F12 methods 
  Garnet Chan, S. Sharma, J. Yang, R. Olivares  : DMRG                   
  Ulf Ekstrom                                   : XCFun DFT Library      
  Mihaly Kallay                                 : mrcc  (arbitrary order and MRCC methods)
  Frank Weinhold                                : gennbo (NPA and NBO analysis)           
  Simon Mueller                                 : openCOSMO-RS                            
  Christopher J. Cramer and Donald G. Truhlar   : smd solvation model                     
  S Lehtola, MJT Oliveira, MAL Marques          : LibXC Library                           
  Liviu Ungur et al                             : ANISO software                          


 Your calculation uses the libint2 library for the computation of 2-el integrals
 For citations please refer to: http://libint.valeyev.net

 Your ORCA version has been built with support for libXC version: 7.0.0
 For citations please refer to: https://libxc.gitlab.io

 This ORCA versions uses:
   CBLAS   interface :  Fast vector & matrix operations
   LAPACKE interface :  Fast linear algebra routines
   SCALAPACK package :  Parallel linear algebra routines
   Shared memory     :  Shared parallel matrices
   BLAS/LAPACK       :  OpenBLAS 0.3.29  USE64BITINT DYNAMIC_ARCH NO_AFFINITY Zen SINGLE_THREADED
        Core in use  :  Zen
   Copyright (c) 2011-2014, The OpenBLAS Project


  ***********************************
  * Starting time: Fri Apr 24 03:37:15 2026
  * Host name:     vmi3233575
  * Process ID:    1671826
  * Working dir.:  /root/b12_scan/jobs/random5_nn1.70
  ***********************************

NOTE: MaxCore=2500 MB was set to SCF,MP2,MDCI,CIPSI,MRCI,RASCI and CIS
      => If you want to overwrite this, your respective input block should be placed after the MaxCore statement
Your calculation utilizes the atom-pairwise dispersion correction
with the Becke-Johnson damping scheme (D3BJ)


================================================================================

----- Orbital basis set information -----
Your calculation utilizes the basis: def2-SVP
   F. Weigend and R. Ahlrichs, Phys. Chem. Chem. Phys. 7, 3297 (2005).

----- AuxJ basis set information -----
Your calculation utilizes the auxiliary basis: def2/J
   H-Rn: F. Weigend, Phys. Chem. Chem. Phys. 8, 1057 (2006).
   Fr-Lr: K. Eichkorn, F. Weigend, O. Treutler, R. Ahlrichs; Theor. Chem. Acc. 97, 119 (1997).

================================================================================
                                        WARNINGS
                       Please study these warnings very carefully!
================================================================================


WARNING: Geometry Optimization
  ===> : Switching off AutoStart
         For restart on a previous wavefunction, please use MOREAD

================================================================================
                                       INPUT FILE
================================================================================
NAME = random5_nn1.70.inp
|  1> ! BP86 def2-SVP def2/J RI Opt TightSCF D3BJ
|  2> ! SlowConv
|  3> 
|  4> %pal nprocs 8 end
|  5> %maxcore 2500
|  6> 
|  7> %geom
|  8>   MaxIter 300
|  9> end
| 10> 
| 11> * xyz 0 1
| 12> B      1.82323789      1.67014520     -0.12071214
| 13> B      2.06296614     -0.86925158     -0.25700596
| 14> B      1.03909651     -2.89571540      0.12538660
| 15> B      1.05432657      2.04993817     -1.88076162
| 16> B     -0.42771182     -2.02518367     -1.28416758
| 17> B      1.17245757     -0.52617598      1.61249047
| 18> B     -1.65696998     -1.31304216      1.61823515
| 19> B      0.00251862     -0.17270251     -1.82652162
| 20> B     -0.65530138      2.45543364      0.12883120
| 21> B     -1.62874344      1.26363797      0.85135015
| 22> B     -2.24197144     -0.04607081     -1.69239832
| 23> B     -0.54390525      0.40898714      2.72527367
| 24> *
| 25> 
| 26>                          ****END OF INPUT****
================================================================================

                       *****************************
                       * Geometry Optimization Run *
                       *****************************

Geometry optimization settings:
Update method            Update   .... BFGS
Choice of coordinates    CoordSys .... (2022) Redundant Internals
Initial Hessian          InHess   .... Almloef's Model
Max. no of cycles        MaxIter  .... 300

Convergence Tolerances:
Energy Change            TolE     ....  5.0000e-06 Eh
Max. Gradient            TolMAXG  ....  3.0000e-04 Eh/bohr
RMS Gradient             TolRMSG  ....  1.0000e-04 Eh/bohr
Max. Displacement        TolMAXD  ....  4.0000e-03 bohr
RMS Displacement         TolRMSD  ....  2.0000e-03 bohr
Strict Convergence                .... False

------------------------------------------------------------------------------
                        ORCA OPTIMIZATION COORDINATE SETUP
------------------------------------------------------------------------------

The optimization will be done in redundant internal coordinates (2022)
Making redundant internal coordinates   ...  (2022 redundants) done
Evaluating the initial hessian          ...  (Almloef) done
Evaluating the coordinates              ...  done
Calculating the B-matrix                .... done
Calculating the G-matrix                .... done
The number of degrees of freedom        ....  230

    -----------------------------------------------------------------
                    Redundant Internal Coordinates


    -----------------------------------------------------------------
         Definition                    Initial Value    Approx d2E/dq
    -----------------------------------------------------------------
      1. B(B   1,B   0)                  2.5543         0.011635   
      2. B(B   2,B   1)                  2.3024         0.029355   
      3. B(B   3,B   0)                  1.9579         0.104083   
      4. B(B   4,B   1)                  2.9317         0.010000   
      5. B(B   4,B   2)                  2.2127         0.040809   
      6. B(B   5,B   0)                  2.8725         0.010000   
      7. B(B   5,B   2)                  2.8007         0.010000   
      8. B(B   5,B   1)                  2.0990         0.061978   
      9. B(B   6,B   5)                  2.9368         0.010000   
     10. B(B   7,B   1)                  2.6822         0.010000   
     11. B(B   7,B   0)                  3.1018         0.010000   
     12. B(B   7,B   4)                  1.9776         0.096802   
     13. B(B   7,B   3)                  2.4595         0.016481   
     14. B(B   8,B   0)                  2.6119         0.010000   
     15. B(B   8,B   3)                  2.6694         0.010000   
     16. B(B   9,B   6)                  2.6885         0.010000   
     17. B(B   9,B   8)                  1.7000         0.268404   
     18. B(B  10,B   9)                  2.9261         0.010000   
     19. B(B  10,B   4)                  2.7157         0.010000   
     20. B(B  10,B   7)                  2.2521         0.035320   
     21. B(B  11,B   6)                  2.3302         0.026506   
     22. B(B  11,B   9)                  2.3279         0.026736   
     23. B(B  11,B   5)                  2.2492         0.035698   
     24. A(B   1,B   0,B   5)           45.0352         0.134696   
     25. A(B   1,B   0,B   3)          100.4712         0.186760   
     26. A(B   1,B   0,B   7)           55.6039         0.126766   
     27. A(B   5,B   0,B   8)           87.5498         0.132559   
     28. A(B   7,B   0,B   8)           70.9829         0.125000   
     29. A(B   3,B   0,B   5)          126.9958         0.164035   
     30. A(B   1,B   0,B   8)          113.1448         0.145752   
     31. A(B   5,B   0,B   7)           75.2008         0.117987   
     32. A(B   3,B   0,B   8)           69.8115         0.182189   
     33. A(B   3,B   0,B   7)           52.4348         0.151013   
     34. A(B   0,B   1,B   2)          145.5285         0.162408   
     35. A(B   4,B   1,B   5)           90.9207         0.152525   
     36. A(B   2,B   1,B   7)           89.0914         0.155006   
     37. A(B   0,B   1,B   7)           72.5993         0.142532   
     38. A(B   4,B   1,B   7)           40.9507         0.128116   
     39. A(B   0,B   1,B   4)          109.3263         0.132502   
     40. A(B   5,B   1,B   7)           98.7908         0.167170   
     41. A(B   0,B   1,B   5)           75.5323         0.175937   
     42. A(B   2,B   1,B   4)           48.1913         0.142639   
     43. A(B   2,B   1,B   5)           78.8878         0.196195   
     44. A(B   1,B   2,B   5)           47.3406         0.148810   
     45. A(B   1,B   2,B   4)           80.9509         0.186521   
     46. A(B   4,B   2,B   5)           92.1178         0.153440   
     47. A(B   7,B   3,B   8)           81.1868         0.147539   
     48. A(B   0,B   3,B   8)           66.6860         0.177840   
     49. A(B   0,B   3,B   7)           88.4428         0.194776   
     50. A(B   1,B   4,B   7)           62.7366         0.159270   
     51. A(B   2,B   4,B   7)          113.5166         0.216757   
     52. A(B   2,B   4,B  10)          145.6211         0.158159   
     53. A(B   7,B   4,B  10)           54.6519         0.173093   
     54. A(B   1,B   4,B  10)          109.4443         0.127040   
     55. A(B   1,B   4,B   2)           50.8578         0.146792   
     56. A(B   0,B   5,B   1)           59.4326         0.155728   
     57. A(B   0,B   5,B   6)          115.1071         0.122248   
     58. A(B   2,B   5,B   6)           74.2452         0.124293   
     59. A(B   1,B   5,B   2)           53.7716         0.159833   
     60. A(B   0,B   5,B  11)           98.8299         0.147895   
     61. A(B   2,B   5,B  11)          125.3197         0.151518   
     62. A(B   1,B   5,B  11)          146.3438         0.201048   
     63. A(B   6,B   5,B  11)           51.3342         0.144829   
     64. A(B   0,B   5,B   2)          109.7125         0.126231   
     65. A(B   1,B   5,B   6)          111.5119         0.152254   
     66. A(B   5,B   6,B   9)           74.4869         0.127743   
     67. A(B   5,B   6,B  11)           48.9074         0.141191   
     68. A(B   9,B   6,B  11)           54.7068         0.153158   
     69. A(B   4,B   7,B  10)           79.6022         0.212648   
     70. A(B   1,B   7,B  10)          138.1913         0.157828   
     71. A(B   3,B   7,B   4)          161.0114         0.193054   
     72. A(B   0,B   7,B   1)           51.7969         0.122957   
     73. A(B   0,B   7,B   3)           39.1224         0.129862   
     74. A(B   1,B   7,B   3)           85.3580         0.146921   
     75. A(B   1,B   7,B   4)           76.3127         0.175471   
     76. A(B   0,B   7,B  10)          121.2561         0.137557   
     77. A(B   3,B   7,B  10)          112.1298         0.171824   
     78. A(B   0,B   7,B   4)          122.2367         0.150003   
     79. A(B   0,B   8,B   3)           43.5025         0.140573   
     80. A(B   3,B   8,B   9)          125.4644         0.199084   
     81. A(B   0,B   8,B   9)          111.9132         0.204474   
     82. A(B   6,B   9,B  10)           79.4436         0.128090   
     83. A(B   6,B   9,B  11)           54.7885         0.153283   
     84. A(B   6,B   9,B   8)          143.0475         0.197347   
     85. A(B  10,B   9,B  11)          129.2828         0.141761   
     86. A(B   8,B   9,B  10)           93.6877         0.177926   
     87. A(B   8,B   9,B  11)          109.4309         0.235239   
     88. A(B   4,B  10,B   9)           93.1819         0.127217   
     89. A(B   7,B  10,B   9)           82.4191         0.145193   
     90. A(B   4,B  10,B   7)           45.7459         0.155935   
     91. A(B   6,B  11,B   9)           70.5047         0.175595   
     92. A(B   5,B  11,B   6)           79.7583         0.181450   
     93. A(B   5,B  11,B   9)           96.3155         0.181631   
     94. D(B   2,B   1,B   0,B   7)    -60.9326         0.010000   
     95. D(B   5,B   1,B   0,B   7)   -104.2565         0.010000   
     96. D(B   2,B   1,B   0,B   3)    -89.5433         0.010000   
     97. D(B   2,B   1,B   0,B   5)     43.3239         0.010000   
     98. D(B   5,B   1,B   0,B   3)   -132.8673         0.010000   
     99. D(B   7,B   1,B   0,B   3)    -28.6108         0.010000   
    100. D(B   5,B   1,B   0,B   8)    -60.4853         0.010000   
    101. D(B   2,B   1,B   0,B   8)    -17.1614         0.010000   
    102. D(B   5,B   2,B   1,B   4)   -101.3988         0.010000   
    103. D(B   5,B   2,B   1,B   0)    -42.6142         0.010000   
    104. D(B   4,B   2,B   1,B   7)      2.2568         0.010000   
    105. D(B   4,B   2,B   1,B   0)     58.7847         0.010000   
    106. D(B   5,B   2,B   1,B   7)    -99.1420         0.010000   
    107. D(B   4,B   2,B   1,B   5)    101.3988         0.010000   
    108. D(B   7,B   3,B   0,B   8)    -81.0726         0.010000   
    109. D(B   8,B   3,B   0,B   7)     81.0726         0.010000   
    110. D(B   8,B   3,B   0,B   1)    110.9725         0.010000   
    111. D(B   8,B   3,B   0,B   5)     70.4840         0.010000   
    112. D(B   7,B   3,B   0,B   5)    -10.5886         0.010000   
    113. D(B   7,B   3,B   0,B   1)     29.8998         0.010000   
    114. D(B  10,B   4,B   2,B   1)    -64.5650         0.010000   
    115. D(B   7,B   4,B   2,B   5)     42.8300         0.010000   
    116. D(B   7,B   4,B   2,B   1)     -3.3387         0.010000   
    117. D(B   2,B   4,B   1,B   7)   -176.5558         0.010000   
    118. D(B  10,B   4,B   2,B   5)    -18.3962         0.010000   
    119. D(B  10,B   4,B   1,B   5)     73.1050         0.010000   
    120. D(B   7,B   4,B   1,B   5)    102.3973         0.010000   
    121. D(B   2,B   4,B   1,B   5)    -74.1585         0.010000   
    122. D(B   1,B   4,B   2,B   5)     46.1687         0.010000   
    123. D(B   7,B   4,B   1,B   2)    176.5558         0.010000   
    124. D(B   2,B   4,B   1,B   0)   -149.1388         0.010000   
    125. D(B   7,B   4,B   1,B   0)     27.4171         0.010000   
    126. D(B   6,B   5,B   2,B   4)     57.1316         0.010000   
    127. D(B  11,B   5,B   2,B   4)     62.5685         0.010000   
    128. D(B   0,B   5,B   2,B   4)    -54.4137         0.010000   
    129. D(B   1,B   5,B   2,B   4)    -75.6353         0.010000   
    130. D(B  11,B   5,B   1,B   0)     55.5696         0.010000   
    131. D(B  11,B   5,B   2,B   1)    138.2039         0.010000   
    132. D(B   0,B   5,B   1,B   4)   -109.7358         0.010000   
    133. D(B   0,B   5,B   1,B   7)    -69.3647         0.010000   
    134. D(B   0,B   5,B   1,B   2)   -156.6865         0.010000   
    135. D(B   1,B   5,B   0,B   8)    126.7819         0.010000   
    136. D(B  11,B   5,B   0,B   3)    -87.9700         0.010000   
    137. D(B   2,B   5,B   0,B   8)    106.9584         0.010000   
    138. D(B   2,B   5,B   0,B   1)    -19.8234         0.010000   
    139. D(B  11,B   5,B   1,B   2)   -101.1169         0.010000   
    140. D(B   2,B   5,B   0,B   7)     35.9867         0.010000   
    141. D(B   2,B   5,B   1,B   0)    156.6865         0.010000   
    142. D(B   2,B   5,B   0,B   3)     44.6515         0.010000   
    143. D(B   0,B   5,B   2,B   1)     21.2217         0.010000   
    144. D(B   2,B   5,B   1,B   4)     46.9507         0.010000   
    145. D(B   1,B   5,B   0,B   3)     64.4749         0.010000   
    146. D(B   1,B   5,B   0,B   7)     55.8101         0.010000   
    147. D(B   2,B   5,B   1,B   7)     87.3218         0.010000   
    148. D(B   9,B   6,B   5,B   0)    -24.5277         0.010000   
    149. D(B   9,B   6,B   5,B   2)   -129.2917         0.010000   
    150. D(B   9,B   6,B   5,B   1)    -89.7579         0.010000   
    151. D(B  11,B   6,B   5,B   0)    -80.9184         0.010000   
    152. D(B  11,B   6,B   5,B   2)    174.3176         0.010000   
    153. D(B  11,B   6,B   5,B   1)   -146.1487         0.010000   
    154. D(B   4,B   7,B   0,B   5)    -13.6392         0.010000   
    155. D(B   4,B   7,B   0,B   1)     31.5372         0.010000   
    156. D(B   4,B   7,B   0,B   3)    175.0920         0.010000   
    157. D(B  10,B   7,B   4,B   2)   -142.6411         0.010000   
    158. D(B   0,B   7,B   4,B   1)    -25.0266         0.010000   
    159. D(B   0,B   7,B   4,B   2)    -22.1140         0.010000   
    160. D(B   3,B   7,B   4,B   1)    -15.4765         0.010000   
    161. D(B   3,B   7,B   4,B  10)    130.0773         0.010000   
    162. D(B   3,B   7,B   4,B   2)    -12.5638         0.010000   
    163. D(B   1,B   7,B   3,B   0)    -27.9277         0.010000   
    164. D(B  10,B   7,B   3,B   8)     46.1674         0.010000   
    165. D(B  10,B   7,B   3,B   0)    112.8121         0.010000   
    166. D(B   4,B   7,B   3,B   8)    -79.4953         0.010000   
    167. D(B   4,B   7,B   3,B   0)    -12.8506         0.010000   
    168. D(B   0,B   7,B   1,B   5)     71.7362         0.010000   
    169. D(B   3,B   7,B   1,B   4)    175.0026         0.010000   
    170. D(B   3,B   7,B   1,B   0)     22.0904         0.010000   
    171. D(B   0,B   7,B   3,B   8)    -66.6447         0.010000   
    172. D(B   3,B   7,B   1,B   2)    172.4358         0.010000   
    173. D(B   3,B   7,B   1,B   5)     93.8265         0.010000   
    174. D(B   4,B   7,B   1,B   0)   -152.9122         0.010000   
    175. D(B   4,B   7,B   1,B   2)     -2.5668         0.010000   
    176. D(B   4,B   7,B   1,B   5)    -81.1760         0.010000   
    177. D(B  10,B   7,B   0,B   3)    -87.2554         0.010000   
    178. D(B   3,B   7,B   0,B   8)     78.7305         0.010000   
    179. D(B   0,B   7,B   4,B  10)    120.5271         0.010000   
    180. D(B   3,B   7,B   0,B   5)    171.2688         0.010000   
    181. D(B   3,B   7,B   0,B   1)   -143.5548         0.010000   
    182. D(B   4,B   7,B   0,B   8)   -106.1775         0.010000   
    183. D(B   0,B   8,B   3,B   7)     92.1131         0.010000   
    184. D(B   9,B   8,B   3,B   7)      6.9875         0.010000   
    185. D(B   9,B   8,B   3,B   0)    -85.1256         0.010000   
    186. D(B   3,B   8,B   0,B   1)    -93.0616         0.010000   
    187. D(B   3,B   8,B   0,B   7)    -55.9208         0.010000   
    188. D(B   9,B   8,B   0,B   5)    -12.1200         0.010000   
    189. D(B   9,B   8,B   0,B   1)     25.9254         0.010000   
    190. D(B   9,B   8,B   0,B   7)     63.0662         0.010000   
    191. D(B   9,B   8,B   0,B   3)    118.9870         0.010000   
    192. D(B   6,B   9,B   8,B   0)    -10.0447         0.010000   
    193. D(B  10,B   9,B   8,B   0)    -87.3527         0.010000   
    194. D(B  11,B   9,B   8,B   3)     94.3885         0.010000   
    195. D(B  11,B   9,B   8,B   0)     46.7157         0.010000   
    196. D(B  10,B   9,B   6,B   5)    106.6324         0.010000   
    197. D(B  10,B   9,B   6,B  11)    156.8966         0.010000   
    198. D(B  11,B   9,B   6,B   5)    -50.2642         0.010000   
    199. D(B  10,B   9,B   8,B   3)    -39.6799         0.010000   
    200. D(B   8,B   9,B   6,B   5)     24.6166         0.010000   
    201. D(B   8,B   9,B   6,B  11)     74.8808         0.010000   
    202. D(B   4,B  10,B   9,B  11)    -17.9919         0.010000   
    203. D(B   7,B  10,B   9,B   6)    -87.0231         0.010000   
    204. D(B   7,B  10,B   9,B  11)    -62.5548         0.010000   
    205. D(B   7,B  10,B   9,B   8)     56.3529         0.010000   
    206. D(B   9,B  10,B   7,B   3)    -62.4126         0.010000   
    207. D(B   9,B  10,B   7,B   4)    101.9962         0.010000   
    208. D(B   4,B  10,B   7,B   1)    -55.5257         0.010000   
    209. D(B   4,B  10,B   7,B   0)   -121.5357         0.010000   
    210. D(B   4,B  10,B   7,B   3)   -164.4088         0.010000   
    211. D(B   9,B  10,B   7,B   0)    -19.5395         0.010000   
    212. D(B   9,B  10,B   4,B   1)    -43.9715         0.010000   
    213. D(B   9,B  10,B   4,B   2)      3.9965         0.010000   
    214. D(B   9,B  10,B   4,B   7)    -76.1939         0.010000   
    215. D(B   4,B  10,B   9,B   8)    100.9158         0.010000   
    216. D(B   7,B  10,B   4,B   1)     32.2225         0.010000   
    217. D(B   7,B  10,B   4,B   2)     80.1904         0.010000   
    218. D(B   9,B  11,B   5,B   0)     46.3655         0.010000   
    219. D(B   9,B  11,B   5,B   2)    -75.5330         0.010000   
    220. D(B   9,B  11,B   5,B   1)      0.4175         0.010000   
    221. D(B   6,B  11,B   9,B  10)    -29.8920         0.010000   
    222. D(B   6,B  11,B   9,B   8)   -142.0194         0.010000   
    223. D(B   5,B  11,B   9,B   6)     76.7649         0.010000   
    224. D(B   5,B  11,B   9,B  10)     46.8730         0.010000   
    225. D(B   5,B  11,B   9,B   8)    -65.2545         0.010000   
    226. D(B   9,B  11,B   6,B   5)    100.5182         0.010000   
    227. D(B   5,B  11,B   6,B   9)   -100.5182         0.010000   
    228. D(B   6,B  11,B   5,B   2)     -6.7069         0.010000   
    229. D(B   6,B  11,B   5,B   1)     69.2436         0.010000   
    230. D(B   9,B  11,B   5,B   6)    -68.8261         0.010000   
    -----------------------------------------------------------------

Number of atoms                         .... 12
Number of degrees of freedom            .... 230


         *************************************************************
         *                GEOMETRY OPTIMIZATION CYCLE   1            *
         *************************************************************
---------------------------------
CARTESIAN COORDINATES (ANGSTROEM)
---------------------------------
  B      1.823238    1.670145   -0.120712
  B      2.062966   -0.869252   -0.257006
  B      1.039097   -2.895715    0.125387
  B      1.054327    2.049938   -1.880762
  B     -0.427712   -2.025184   -1.284168
  B      1.172458   -0.526176    1.612490
  B     -1.656970   -1.313042    1.618235
  B      0.002519   -0.172703   -1.826522
  B     -0.655301    2.455434    0.128831
  B     -1.628743    1.263638    0.851350
  B     -2.241971   -0.046071   -1.692398
  B     -0.543905    0.408987    2.725274

----------------------------
CARTESIAN COORDINATES (A.U.)
----------------------------
  NO LB      ZA    FRAG     MASS         X           Y           Z
   0 B     5.0000    0    10.810    3.445420    3.156117   -0.228113
   1 B     5.0000    0    10.810    3.898441   -1.642647   -0.485671
   2 B     5.0000    0    10.810    1.963608   -5.472109    0.236946
   3 B     5.0000    0    10.810    1.992388    3.873822   -3.554124
   4 B     5.0000    0    10.810   -0.808258   -3.827043   -2.426725
   5 B     5.0000    0    10.810    2.215624   -0.994329    3.047165
   6 B     5.0000    0    10.810   -3.131219   -2.481290    3.058021
   7 B     5.0000    0    10.810    0.004760   -0.326360   -3.451626
   8 B     5.0000    0    10.810   -1.238340    4.640097    0.243456
   9 B     5.0000    0    10.810   -3.077879    2.387930    1.608819
  10 B     5.0000    0    10.810   -4.236712   -0.087061   -3.198169
  11 B     5.0000    0    10.810   -1.027832    0.772874    5.150021

--------------------------------
INTERNAL COORDINATES (ANGSTROEM)
--------------------------------
 B      0   0   0     0.000000000000     0.00000000     0.00000000
 B      1   0   0     2.554326064834     0.00000000     0.00000000
 B      2   1   0     2.302409325674   145.52848593     0.00000000
 B      1   2   3     1.957866565968   100.47117086   270.45666893
 B      3   2   1     2.212734768618    80.95092936    58.78467213
 B      2   1   3     2.098981486898    75.53225355   316.67607582
 B      6   2   1     2.936809773764   111.51186463   107.27120730
 B      5   3   2     1.977607793361   113.51657458   356.66127139
 B      1   2   3     2.611916293733   113.14478560   342.83859050
 B      9   1   2     1.699999998917   111.91319767    25.92540989
 B      8   5   3     2.252056899034    79.60219787   217.35892855
 B      6   2   1     2.249159363204   146.34383734    55.56960164

---------------------------
INTERNAL COORDINATES (A.U.)
---------------------------
 B      0   0   0     0.000000000000     0.00000000     0.00000000
 B      1   0   0     4.826976719274     0.00000000     0.00000000
 B      2   1   0     4.350923073709   145.52848593     0.00000000
 B      1   2   3     3.699831616440   100.47117086   270.45666893
 B      3   2   1     4.181462719693    80.95092936    58.78467213
 B      2   1   3     3.966500170408    75.53225355   316.67607582
 B      6   2   1     5.549766179837   111.51186463   107.27120730
 B      5   3   2     3.737137129760   113.51657458   356.66127139
 B      1   2   3     4.935806479882   113.14478560   342.83859050
 B      9   1   2     3.212534425619   111.91319767    25.92540989
 B      8   5   3     4.255770777182    79.60219787   217.35892855
 B      6   2   1     4.250295228000   146.34383734    55.56960164

---------------------
BASIS SET INFORMATION
---------------------
There are 1 groups of distinct atoms

 Group   1 Type B   : 7s4p1d contracted to 3s2p1d pattern {511/31/1}

Atom   0B    basis set group =>   1
Atom   1B    basis set group =>   1
Atom   2B    basis set group =>   1
Atom   3B    basis set group =>   1
Atom   4B    basis set group =>   1
Atom   5B    basis set group =>   1
Atom   6B    basis set group =>   1
Atom   7B    basis set group =>   1
Atom   8B    basis set group =>   1
Atom   9B    basis set group =>   1
Atom  10B    basis set group =>   1
Atom  11B    basis set group =>   1
---------------------------------
AUXILIARY/J BASIS SET INFORMATION
---------------------------------
There are 1 groups of distinct atoms

 Group   1 Type B   : 12s5p4d2f1g contracted to 6s4p3d1f1g pattern {711111/2111/211/2/1}

Atom   0B    basis set group =>   1
Atom   1B    basis set group =>   1
Atom   2B    basis set group =>   1
Atom   3B    basis set group =>   1
Atom   4B    basis set group =>   1
Atom   5B    basis set group =>   1
Atom   6B    basis set group =>   1
Atom   7B    basis set group =>   1
Atom   8B    basis set group =>   1
Atom   9B    basis set group =>   1
Atom  10B    basis set group =>   1
Atom  11B    basis set group =>   1


           ************************************************************
           *        Program running with 8 parallel MPI-processes     *
           *              working on a common directory               *
           ************************************************************
------------------------------------------------------------------------------
                             ORCA STARTUP CALCULATIONS
                           -- RI-GTO INTEGRALS CHOSEN --
------------------------------------------------------------------------------
------------------------------------------------------------------------------
                   ___                                                        
                  /   \      - P O W E R E D   B Y -                         
                 /     \                                                     
                 |  |  |   _    _      __       _____    __    __             
                 |  |  |  | |  | |    /  \     |  _  \  |  |  /  |          
                  \  \/   | |  | |   /    \    | | | |  |  | /  /          
                 / \  \   | |__| |  /  /\  \   | |_| |  |  |/  /          
                |  |  |   |  __  | /  /__\  \  |    /   |      \           
                |  |  |   | |  | | |   __   |  |    \   |  |\   \          
                \     /   | |  | | |  |  |  |  | |\  \  |  | \   \       
                 \___/    |_|  |_| |__|  |__|  |_| \__\ |__|  \__/        
                                                                              
                      - O R C A' S   B I G   F R I E N D -                    
                                      &                                       
                       - I N T E G R A L  F E E D E R -                       
                                                                              
 v1 FN, 2020, v2 2021, v3 2022-2024                                           
------------------------------------------------------------------------------


----------------------
SHARK INTEGRAL PACKAGE
----------------------

Number of atoms                             ...     12
Number of basis functions                   ...    168
Number of shells                            ...     72
Maximum angular momentum                    ...      2
Integral batch strategy                     ... SHARK/LIBINT Hybrid
RI-J (if used) integral strategy            ... SPLIT-RIJ (Revised 2003 algorithm where possible)
Printlevel                                  ...      1
Contraction scheme used                     ... SEGMENTED contraction
Prescreening option                         ... SCHWARTZ
   Thresh                                   ... 2.500e-11
   Tcut                                     ... 2.500e-12
   Tpresel                                  ... 2.500e-12 
Coulomb Range Separation                    ... NOT USED
Exchange Range Separation                   ... NOT USED
Multipole approximations                    ... NOT USED
Finite Nucleus Model                        ... NOT USED
CABS basis                                  ... NOT available
Auxiliary Coulomb fitting basis             ... AVAILABLE
   # of basis functions in Aux-J            ...    588
   # of shells in Aux-J                     ...    180
   Maximum angular momentum in Aux-J        ...      4
Auxiliary J/K fitting basis                 ... NOT available
Auxiliary Correlation fitting basis         ... NOT available
Auxiliary 'external' fitting basis          ... NOT available

Checking pre-screening integrals            ... done (  0.0 sec) Dimension = 72
   => SHARK Basis and OBASIS are compatible. Storing Pre-screening
Shell pair information
Shell pair cut-off parameter TPreSel        ...   2.5e-12
Total number of shell pairs                 ...      2628
Shell pairs after pre-screening             ...      2528
Total number of primitive shell pairs       ...     10596
Primitive shell pairs kept                  ...      7234
          la=0 lb=0:    608 shell pairs
          la=1 lb=0:    856 shell pairs
          la=1 lb=1:    300 shell pairs
          la=2 lb=0:    398 shell pairs
          la=2 lb=1:    288 shell pairs
          la=2 lb=2:     78 shell pairs

Checking whether 4 symmetric matrices of dimension 168 fit in memory
:Max Core in MB      =   2500.00
 MB in use           =      6.74
 MB left             =   2493.26
 MB needed           =      0.43
 Data fit in memory  = YES
Calculating RI/J V-Matrix + Cholesky decomp.... done (  0.0 sec)
Calculating Nuclear repulsion               ... done (  0.0 sec) ENN=    262.629814569283 Eh

Diagonalization of the overlap matrix:
Smallest eigenvalue                        ... 2.394e-03
Time for diagonalization                   ...    0.004 sec
Threshold for overlap eigenvalues          ... 1.000e-07
Number of eigenvalues below threshold      ... 0
Time for construction of square roots      ...    0.002 sec
Total time needed                          ...    0.007 sec

-------------------
DFT GRID GENERATION
-------------------

General Integration Accuracy     IntAcc      ... 4.388
Radial Grid Type                 RadialGrid  ... OptM3 with GC (2021)
Angular Grid (max. ang.)         AngularGrid ... 4 (Lebedev-302)
Angular grid pruning method      GridPruning ... 4 (adaptive)
Weight generation scheme         WeightScheme... mBecke (2022)
Basis function cutoff            BFCut       ... 1.0000e-11
Integration weight cutoff        WCut        ... 1.0000e-14
Partially contracted basis set               ... off
Rotationally invariant grid construction     ... off
Angular grids for H and He will be reduced by one unit

Total number of grid points                  ...    72274
Total number of batches                      ...     1137
Average number of points per batch           ...       63
Average number of grid points per atom       ...     6023
Grids setup in   0.7 sec
Initializing property integral containers    ... done (  0.0 sec)

SHARK setup successfully completed in   0.8 seconds

Maximum memory used throughout the entire STARTUP-calculation: 19.9 MB


           ************************************************************
           *        Program running with 8 parallel MPI-processes     *
           *              working on a common directory               *
           ************************************************************
-------------------------------------------------------------------------------
                                 ORCA GUESS
                   Start orbitals & Density for SCF / CASSCF
-------------------------------------------------------------------------------

------------
SCF SETTINGS
------------
Hamiltonian:
 Density Functional     Method          .... DFT(GTOs)
 Exchange Functional    Exchange        .... B88
   X-Alpha parameter    XAlpha          ....  0.666667
   Becke's b parameter  XBeta           ....  0.004200
 Correlation Functional Correlation     .... P86
 LDA part of GGA corr.  LDAOpt          .... PW91-LDA
 Gradients option       PostSCFGGA      .... off
   NL short-range parameter             ....  4.400000
 RI-approximation to the Coulomb term is turned on
   Number of AuxJ basis functions       .... 588


General Settings:
 Integral files         IntName         .... random5_nn1.70
 Hartree-Fock type      HFTyp           .... RHF
 Total Charge           Charge          ....    0
 Multiplicity           Mult            ....    1
 Number of Electrons    NEL             ....   60
 Basis Dimension        Dim             ....  168
 Nuclear Repulsion      ENuc            ....    262.6298145693 Eh

Convergence Acceleration:
 AO-DIIS                CNVDIIS         .... on
   Start iteration      DIISMaxIt       ....     0
   Startup error        DIISStart       ....  0.200000
   # of expansion vecs  DIISMaxEq       ....     5
   Bias factor          DIISBfac        ....   1.050
   Max. coefficient     DIISMaxC        ....  10.000
 MO-DIIS                CNVKDIIS        .... off
 Trust-Rad. Augm. Hess. CNVTRAH         .... auto
   Auto Start mean grad. ratio tolernc. ....  1.125000
   Auto Start start iteration           ....    50
   Auto Start num. interpolation iter.  ....    10
   Max. Number of Micro iterations      ....    24
   Max. Number of Macro iterations      .... Maxiter - #DIIS iter
   Number of Davidson start vectors     ....     2
   Converg. threshold    (grad. norm)   ....   1.000e-05
   Grad. Scal. Fac. for Micro threshold ....   0.100
   Minimum threshold for Micro iter.    ....   1.000e-02
   NR start threshold (gradient norm)   ....   1.000e-04
   Initial trust radius                 ....   0.400
   Minimum AH scaling param. (alpha)    ....   1.000
   Maximum AH scaling param. (alpha)    .... 1000.000
   Quad. conv. algorithm                .... NR
   White noise on init. David. guess    .... on
   Maximum white noise                  ....   0.010
   Pseudo random numbers                .... off
   Inactive MOs                         .... canonical
   Orbital update algorithm             .... Taylor
   Preconditioner                       .... Diag
   Full preconditioner red. dimension   ....   250
 SOSCF                 CNVSOSCF           .... on
   Start iteration     SOSCFMaxIt         ....   150
   Startup grad/error  SOSCFStart         ....  0.001000
   Hessian update      SOSCFHessUp        .... L-BFGS
   Autom. constraints  SOSCFAutoConstrain .... off
 Level Shifting         CNVShift        .... on
   Level shift para.    LevelShift      ....    0.2500
   Turn off err/grad.   ShiftErr        ....    0.0000
 Zerner damping         CNVZerner       .... off
 Static damping         CNVDamp         .... on
   Fraction old density DampFac         ....    0.8500
   Max. Damping (<1)    DampMax         ....    0.9800
   Min. Damping (>=0)   DampMin         ....    0.0000
   Turn off err/grad.   DampErr         ....    0.0300

SCF Procedure:
 Maximum # iterations   MaxIter         ....   125
 SCF integral mode      SCFMode         .... Direct
   Integral package                     .... SHARK and LIBINT hybrid scheme
 Reset frequency        DirectResetFreq ....    20
 Integral Threshold     Thresh          ....  2.500e-11 Eh
 Primitive CutOff       TCut            ....  2.500e-12 Eh

Convergence Tolerance:
 Convergence Check Mode ConvCheckMode   .... Total+1el-Energy
 Convergence forced     ConvForced      .... 0
 Energy Change          TolE            ....  1.000e-08 Eh
 1-El. energy change                    ....  1.000e-05 Eh
 Orbital Gradient       TolG            ....  1.000e-05
 Orbital Rotation angle TolX            ....  1.000e-05
 DIIS Error             TolErr          ....  5.000e-07

------------------------------
INITIAL GUESS: MODEL POTENTIAL
------------------------------
Loading Hartree-Fock densities                     ... done
Calculating cut-offs                               ... done
Initializing the effective Hamiltonian             ... done
Setting up the integral package (SHARK)            ... done
Starting the Coulomb interaction                   ... done (   0.0 sec)
Making the grid                                    ... done (   0.2 sec)
Mapping shells                                     ... done
Starting the XC term evaluation                    ... done (   0.0 sec)
  promolecular density results
     # of electrons  =     60.000481713
     EX              =    -44.648351514
     EC              =     -1.804785794
     EX+EC           =    -46.453137308
Transforming the Hamiltonian                       ... done (   0.0 sec)
Diagonalizing the Hamiltonian                      ... done (   0.0 sec)
Back transforming the eigenvectors                 ... done (   0.0 sec)
Now organizing SCF variables                       ... done
                      ------------------
                      INITIAL GUESS DONE (   0.3 sec)
                      ------------------
             **** ENERGY FILE WAS UPDATED (random5_nn1.70.en.tmp) ****
Finished Guess after   0.8 sec
Maximum memory used throughout the entire GUESS-calculation: 9.5 MB


           ************************************************************
           *        Program running with 8 parallel MPI-processes     *
           *              working on a common directory               *
           ************************************************************

-------------------------------------------------------------------------------------------
                                      ORCA LEAN-SCF
                              memory conserving SCF solver
-------------------------------------------------------------------------------------------

----------------------------------------D-I-I-S--------------------------------------------
Iteration    Energy (Eh)           Delta-E    RMSDP     MaxDP     DIISErr   Damp  Time(sec)
-------------------------------------------------------------------------------------------
               ***  Starting incremental Fock matrix formation  ***
    1    -296.2610115895336094     0.00e+00  7.10e-03  6.69e-02  1.46e-01  0.850   0.4
Warning: op=0 Small HOMO/LUMO gap (  -0.059) - skipping pre-diagonalization
         Will do a full diagonalization
    2    -296.4029641984665204    -1.42e-01  7.71e-03  6.70e-02  8.43e-02  0.850   0.3
                               ***Turning on AO-DIIS***
    3    -296.4508269273144379    -4.79e-02  4.78e-03  3.27e-02  2.67e-02  0.850   0.3
    4    -296.4458726870565215     4.95e-03  2.18e-02  1.62e-01  3.91e-02  0.000   0.3
    5    -296.1565648654702727     2.89e-01  1.02e-03  8.02e-03  2.12e-01  0.850   0.3
    6    -296.1891697420904848    -3.26e-02  1.53e-03  1.14e-02  1.99e-01  0.850   0.3
    7    -296.2350092341190475    -4.58e-02  1.78e-03  1.28e-02  1.80e-01  0.850   0.4
    8    -296.2825550060694013    -4.75e-02  2.18e-03  1.53e-02  1.59e-01  0.850   0.3
    9    -296.3292790630931677    -4.67e-02  4.88e-03  5.66e-02  1.33e-01  0.850   0.3
   10    -296.4138065924629473    -8.45e-02  3.56e-03  2.80e-02  9.66e-02  0.850   0.3
   11    -296.4620897577390224    -4.83e-02  2.53e-03  1.51e-02  7.07e-02  0.850   0.3
   12    -296.4908972504126723    -2.88e-02  1.93e-03  1.22e-02  4.99e-02  0.850   0.3
   13    -296.5084711073284325    -1.76e-02  1.48e-03  9.31e-03  3.27e-02  0.850   0.4
   14    -296.5187548477323389    -1.03e-02  1.15e-03  6.96e-03  2.01e-02  0.850   0.3
   15    -296.5251771682226263    -6.42e-03  6.29e-03  3.50e-02  1.15e-02  0.000   0.3
   16    -296.5406550673170614    -1.55e-02  1.10e-03  1.01e-02  2.54e-02  0.000   0.3
   17    -296.5448088218741987    -4.15e-03  7.22e-04  4.83e-03  1.83e-02  0.000   0.2
   18    -296.5469703798027012    -2.16e-03  5.68e-04  4.00e-03  1.32e-02  0.000   0.3
   19    -296.5482782804601811    -1.31e-03  5.56e-04  4.58e-03  8.58e-03  0.000   0.3
   20    -296.5489294014814732    -6.51e-04  5.41e-04  3.67e-03  6.49e-03  0.000   0.3
               *** Restarting incremental Fock matrix formation ***
                             ****Resetting DIIS****
Warning: op=0 Small HOMO/LUMO gap (   0.001) - skipping pre-diagonalization
         Will do a full diagonalization
   21    -296.5494085156411757    -4.79e-04  3.13e-03  2.07e-02  3.05e-03  0.000   0.4
   22    -296.5449012676829170     4.51e-03  1.26e-03  1.29e-02  1.90e-02  0.000   0.3
   23    -296.5481740606136327    -3.27e-03  6.64e-04  3.75e-03  1.15e-02  0.000   0.3
   24    -296.5491539575565412    -9.80e-04  4.72e-04  1.74e-03  8.44e-03  0.000   0.3
   25    -296.5495238320064573    -3.70e-04  3.99e-04  2.31e-03  7.04e-03  0.000   0.3
   26    -296.5497638296517380    -2.40e-04  8.50e-04  8.63e-03  5.47e-03  0.000   0.3
   27    -296.5500995675662352    -3.36e-04  6.89e-04  6.54e-03  1.53e-03  0.000   0.3
   28    -296.5500910244070383     8.54e-06  3.96e-04  2.32e-03  2.18e-03  0.000   0.3
   29    -296.5501336572970104    -4.26e-05  2.45e-04  1.72e-03  1.70e-03  0.000   0.3
   30    -296.5501987995926356    -6.51e-05  1.83e-04  1.12e-03  1.15e-03  0.000   0.3
                              *** Initializing SOSCF ***
---------------------------------------S-O-S-C-F--------------------------------------
Iteration    Energy (Eh)           Delta-E    RMSDP     MaxDP     MaxGrad    Time(sec)
--------------------------------------------------------------------------------------
   31    -296.5502237391062863    -2.49e-05  1.66e-04  9.38e-04  6.84e-04     0.4
               *** Restarting incremental Fock matrix formation ***
   32    -296.5502384662889881    -1.47e-05  3.19e-04  2.86e-03  3.26e-04     0.3
   33    -296.5502094662604122     2.90e-05  2.16e-04  1.66e-03  8.16e-04     0.3
   34    -296.5502456444096424    -3.62e-05  3.16e-04  4.20e-03  4.25e-04     0.3
   35    -296.5502215273199909     2.41e-05  2.16e-04  2.76e-03  6.35e-04     0.3
   36    -296.5502533150989848    -3.18e-05  2.44e-04  2.14e-03  2.11e-04     0.3
   37    -296.5502373348248284     1.60e-05  1.65e-04  1.57e-03  5.29e-04     0.3
   38    -296.5502590465762296    -2.17e-05  1.24e-04  7.06e-04  1.48e-04     0.3
   39    -296.5502593526795181    -3.06e-07  1.39e-04  6.33e-04  1.63e-04     0.3
   40    -296.5502632493504507    -3.90e-06  2.50e-04  1.06e-03  7.92e-05     0.3
   41    -296.5502617317036993     1.52e-06  7.54e-05  8.74e-04  2.12e-04     0.3
   42    -296.5502652924234326    -3.56e-06  3.54e-05  3.51e-04  3.67e-05     0.3
   43    -296.5502651429535490     1.49e-07  2.37e-05  2.05e-04  7.75e-05     0.3
   44    -296.5502654358941754    -2.93e-07  1.03e-05  7.29e-05  1.45e-05     0.3
   45    -296.5502654467745742    -1.09e-08  1.28e-05  5.15e-05  1.20e-05     0.3
   46    -296.5502654721270801    -2.54e-08  2.62e-05  1.08e-04  7.73e-06     0.3
   47    -296.5502654773156337    -5.19e-09  8.45e-06  5.99e-05  1.81e-05     0.3
                 **** Energy Check signals convergence ****

               *****************************************************
               *                     SUCCESS                       *
               *           SCF CONVERGED AFTER  47 CYCLES          *
               *****************************************************

             **** ENERGY FILE WAS UPDATED (random5_nn1.70.en.tmp) ****

----------------
TOTAL SCF ENERGY
----------------

Total Energy       :       -296.55026549044169 Eh           -8069.54297 eV

Components:
Nuclear Repulsion  :        262.62981456928333 Eh            7146.52058 eV
Electronic Energy  :       -559.18008005972501 Eh          -15216.06355 eV
One Electron Energy:       -913.29290218979565 Eh          -24851.96332 eV
Two Electron Energy:        354.11282213007064 Eh            9635.89977 eV

Virial components:
Potential Energy   :       -587.68762578977248 Eh          -15991.79330 eV
Kinetic Energy     :        291.13736029933085 Eh            7922.25033 eV
Virial Ratio       :          2.01859227268374

DFT components:
N(Alpha)           :       29.999938902899 electrons
N(Beta)            :       29.999938902899 electrons
N(Total)           :       59.999877805799 electrons
E(X)               :      -44.829324701330 Eh       
E(C)               :       -1.837145192081 Eh       
E(XC)              :      -46.666469893412 Eh       

---------------
SCF CONVERGENCE
---------------

  Last Energy change         ...    5.1886e-09  Tolerance :   1.0000e-08
  Last MAX-Density change    ...    5.9944e-05  Tolerance :   1.0000e-07
  Last RMS-Density change    ...    8.4538e-06  Tolerance :   5.0000e-09
  Last DIIS Error            ...    6.8389e-04  Tolerance :   5.0000e-07
  Last Orbital Gradient      ...    1.8107e-05  Tolerance :   1.0000e-05
  Last Orbital Rotation      ...    1.4340e-04  Tolerance :   1.0000e-05


----------------
ORBITAL ENERGIES
----------------

  NO   OCC          E(Eh)            E(eV) 
   0   2.0000      -6.683750      -181.8741 
   1   2.0000      -6.662391      -181.2929 
   2   2.0000      -6.662204      -181.2878 
   3   2.0000      -6.660838      -181.2506 
   4   2.0000      -6.656399      -181.1298 
   5   2.0000      -6.655502      -181.1054 
   6   2.0000      -6.649391      -180.9391 
   7   2.0000      -6.647538      -180.8887 
   8   2.0000      -6.643396      -180.7760 
   9   2.0000      -6.643129      -180.7687 
  10   2.0000      -6.632721      -180.4855 
  11   2.0000      -6.617973      -180.0842 
  12   2.0000      -0.509911       -13.8754 
  13   2.0000      -0.471775       -12.8377 
  14   2.0000      -0.459146       -12.4940 
  15   2.0000      -0.450245       -12.2518 
  16   2.0000      -0.414530       -11.2799 
  17   2.0000      -0.381583       -10.3834 
  18   2.0000      -0.343390        -9.3441 
  19   2.0000      -0.332916        -9.0591 
  20   2.0000      -0.323940        -8.8149 
  21   2.0000      -0.305461        -8.3120 
  22   2.0000      -0.269038        -7.3209 
  23   2.0000      -0.262926        -7.1546 
  24   2.0000      -0.247191        -6.7264 
  25   2.0000      -0.243780        -6.6336 
  26   2.0000      -0.235258        -6.4017 
  27   2.0000      -0.211962        -5.7678 
  28   2.0000      -0.204899        -5.5756 
  29   2.0000      -0.202593        -5.5128 
  30   0.0000      -0.198805        -5.4097 
  31   0.0000      -0.196451        -5.3457 
  32   0.0000      -0.189151        -5.1471 
  33   0.0000      -0.178014        -4.8440 
  34   0.0000      -0.165702        -4.5090 
  35   0.0000      -0.150090        -4.0842 
  36   0.0000      -0.147397        -4.0109 
  37   0.0000      -0.138330        -3.7642 
  38   0.0000      -0.123255        -3.3539 
  39   0.0000      -0.115061        -3.1310 
  40   0.0000      -0.113481        -3.0880 
*Only the first 10 virtual orbitals were printed.

                    ********************************
                    * MULLIKEN POPULATION ANALYSIS *
                    ********************************

-----------------------
MULLIKEN ATOMIC CHARGES
-----------------------
   0 B :   -0.018003
   1 B :   -0.074909
   2 B :    0.070592
   3 B :    0.109088
   4 B :   -0.048597
   5 B :   -0.015758
   6 B :    0.117469
   7 B :   -0.089054
   8 B :   -0.029381
   9 B :   -0.100699
  10 B :    0.090481
  11 B :   -0.011228
Sum of atomic charges:   -0.0000000

--------------------------------
MULLIKEN REDUCED ORBITAL CHARGES
--------------------------------
  0 B s       :     3.659439  s :     3.659439
      pz      :     0.554557  p :     1.343934
      px      :     0.358363
      py      :     0.431014
      dz2     :     0.004852  d :     0.014630
      dxz     :     0.002641
      dyz     :     0.002471
      dx2y2   :     0.002770
      dxy     :     0.001896

  1 B s       :     3.644046  s :     3.644046
      pz      :     0.497423  p :     1.414176
      px      :     0.460643
      py      :     0.456110
      dz2     :     0.003924  d :     0.016688
      dxz     :     0.003897
      dyz     :     0.002791
      dx2y2   :     0.003708
      dxy     :     0.002368

  2 B s       :     3.714243  s :     3.714243
      pz      :     0.355044  p :     1.202671
      px      :     0.507628
      py      :     0.339999
      dz2     :     0.001267  d :     0.012494
      dxz     :     0.002767
      dyz     :     0.002661
      dx2y2   :     0.002752
      dxy     :     0.003047

  3 B s       :     3.628470  s :     3.628470
      pz      :     0.440428  p :     1.247727
      px      :     0.478065
      py      :     0.329234
      dz2     :     0.004499  d :     0.014714
      dxz     :     0.005169
      dyz     :     0.002186
      dx2y2   :     0.001543
      dxy     :     0.001317

  4 B s       :     3.571142  s :     3.571142
      pz      :     0.397677  p :     1.462595
      px      :     0.536135
      py      :     0.528782
      dz2     :     0.001689  d :     0.014860
      dxz     :     0.002225
      dyz     :     0.002755
      dx2y2   :     0.003704
      dxy     :     0.004487

  5 B s       :     3.591348  s :     3.591348
      pz      :     0.512243  p :     1.412104
      px      :     0.473411
      py      :     0.426450
      dz2     :     0.002460  d :     0.012306
      dxz     :     0.003306
      dyz     :     0.002946
      dx2y2   :     0.001529
      dxy     :     0.002065

  6 B s       :     3.852449  s :     3.852449
      pz      :     0.378516  p :     1.021135
      px      :     0.215030
      py      :     0.427589
      dz2     :     0.001307  d :     0.008948
      dxz     :     0.000939
      dyz     :     0.002310
      dx2y2   :     0.003084
      dxy     :     0.001308

  7 B s       :     3.476939  s :     3.476939
      pz      :     0.470981  p :     1.596037
      px      :     0.509481
      py      :     0.615575
      dz2     :     0.002156  d :     0.016077
      dxz     :     0.002122
      dyz     :     0.001534
      dx2y2   :     0.006061
      dxy     :     0.004203

  8 B s       :     3.482411  s :     3.482411
      pz      :     0.563835  p :     1.532816
      px      :     0.609137
      py      :     0.359844
      dz2     :     0.002283  d :     0.014154
      dxz     :     0.002106
      dyz     :     0.003151
      dx2y2   :     0.002303
      dxy     :     0.004311

  9 B s       :     3.372135  s :     3.372135
      pz      :     0.588311  p :     1.713348
      px      :     0.494450
      py      :     0.630587
      dz2     :     0.003294  d :     0.015215
      dxz     :     0.003104
      dyz     :     0.002723
      dx2y2   :     0.002700
      dxy     :     0.003394

 10 B s       :     3.888722  s :     3.888722
      pz      :     0.305830  p :     1.011500
      px      :     0.448076
      py      :     0.257594
      dz2     :     0.001909  d :     0.009298
      dxz     :     0.001530
      dyz     :     0.000654
      dx2y2   :     0.002720
      dxy     :     0.002485

 11 B s       :     3.672755  s :     3.672755
      pz      :     0.421605  p :     1.323929
      px      :     0.552091
      py      :     0.350232
      dz2     :     0.002527  d :     0.014544
      dxz     :     0.004521
      dyz     :     0.003071
      dx2y2   :     0.001926
      dxy     :     0.002500



                     *******************************
                     * LOEWDIN POPULATION ANALYSIS *
                     *******************************

----------------------
LOEWDIN ATOMIC CHARGES
----------------------
   0 B :    0.026245
   1 B :   -0.095809
   2 B :    0.037235
   3 B :    0.003426
   4 B :   -0.010646
   5 B :    0.062730
   6 B :    0.127423
   7 B :   -0.077391
   8 B :    0.032392
   9 B :   -0.124093
  10 B :    0.092361
  11 B :   -0.073872

-------------------------------
LOEWDIN REDUCED ORBITAL CHARGES
-------------------------------
  0 B s       :     3.337306  s :     3.337306
      pz      :     0.703179  p :     1.606286
      px      :     0.420642
      py      :     0.482465
      dz2     :     0.011782  d :     0.030162
      dxz     :     0.006521
      dyz     :     0.004228
      dx2y2   :     0.004627
      dxy     :     0.003004

  1 B s       :     3.304634  s :     3.304634
      pz      :     0.653508  p :     1.756742
      px      :     0.522179
      py      :     0.581055
      dz2     :     0.010099  d :     0.034433
      dxz     :     0.008674
      dyz     :     0.004386
      dx2y2   :     0.006738
      dxy     :     0.004536

  2 B s       :     3.468250  s :     3.468250
      pz      :     0.433021  p :     1.469708
      px      :     0.591714
      py      :     0.444973
      dz2     :     0.002498  d :     0.024807
      dxz     :     0.006321
      dyz     :     0.004701
      dx2y2   :     0.004765
      dxy     :     0.006523

  3 B s       :     3.374303  s :     3.374303
      pz      :     0.619405  p :     1.589821
      px      :     0.554273
      py      :     0.416143
      dz2     :     0.011363  d :     0.032450
      dxz     :     0.011313
      dyz     :     0.004039
      dx2y2   :     0.002896
      dxy     :     0.002839

  4 B s       :     3.252655  s :     3.252655
      pz      :     0.454022  p :     1.724571
      px      :     0.596383
      py      :     0.674167
      dz2     :     0.003627  d :     0.033420
      dxz     :     0.005222
      dyz     :     0.005853
      dx2y2   :     0.010087
      dxy     :     0.008631

  5 B s       :     3.286415  s :     3.286415
      pz      :     0.623523  p :     1.624750
      px      :     0.523452
      py      :     0.477775
      dz2     :     0.006682  d :     0.026105
      dxz     :     0.008228
      dyz     :     0.004533
      dx2y2   :     0.002620
      dxy     :     0.004042

  6 B s       :     3.661703  s :     3.661703
      pz      :     0.425879  p :     1.196113
      px      :     0.253522
      py      :     0.516712
      dz2     :     0.001740  d :     0.014761
      dxz     :     0.001672
      dyz     :     0.004443
      dx2y2   :     0.004509
      dxy     :     0.002397

  7 B s       :     3.178059  s :     3.178059
      pz      :     0.487341  p :     1.863416
      px      :     0.624755
      py      :     0.751320
      dz2     :     0.004780  d :     0.035916
      dxz     :     0.003250
      dyz     :     0.003474
      dx2y2   :     0.016707
      dxy     :     0.007706

  8 B s       :     3.166604  s :     3.166604
      pz      :     0.605698  p :     1.767448
      px      :     0.685506
      py      :     0.476244
      dz2     :     0.004811  d :     0.033556
      dxz     :     0.004904
      dyz     :     0.007573
      dx2y2   :     0.004229
      dxy     :     0.012039

  9 B s       :     3.089365  s :     3.089365
      pz      :     0.678832  p :     1.997165
      px      :     0.567286
      py      :     0.751047
      dz2     :     0.006627  d :     0.037563
      dxz     :     0.008034
      dyz     :     0.007046
      dx2y2   :     0.004836
      dxy     :     0.011019

 10 B s       :     3.687296  s :     3.687296
      pz      :     0.335331  p :     1.204293
      px      :     0.578062
      py      :     0.290900
      dz2     :     0.003490  d :     0.016050
      dxz     :     0.001947
      dyz     :     0.000883
      dx2y2   :     0.006589
      dxy     :     0.003141

 11 B s       :     3.379848  s :     3.379848
      pz      :     0.547387  p :     1.663567
      px      :     0.665540
      py      :     0.450641
      dz2     :     0.004330  d :     0.030457
      dxz     :     0.009804
      dyz     :     0.006418
      dx2y2   :     0.003539
      dxy     :     0.006366



                      *****************************
                      * MAYER POPULATION ANALYSIS *
                      *****************************

  NA   - Mulliken gross atomic population
  ZA   - Total nuclear charge
  QA   - Mulliken gross atomic charge
  VA   - Mayer's total valence
  BVA  - Mayer's bonded valence
  FA   - Mayer's free valence

  ATOM       NA         ZA         QA         VA         BVA        FA
  0 B      5.0180     5.0000    -0.0180     2.5684     2.5684    -0.0000
  1 B      5.0749     5.0000    -0.0749     2.6247     2.6247    -0.0000
  2 B      4.9294     5.0000     0.0706     2.3080     2.3080     0.0000
  3 B      4.8909     5.0000     0.1091     2.4487     2.4487    -0.0000
  4 B      5.0486     5.0000    -0.0486     2.7613     2.7613    -0.0000
  5 B      5.0158     5.0000    -0.0158     2.5622     2.5622     0.0000
  6 B      4.8825     5.0000     0.1175     1.8592     1.8592    -0.0000
  7 B      5.0891     5.0000    -0.0891     2.9358     2.9358    -0.0000
  8 B      5.0294     5.0000    -0.0294     2.9057     2.9057     0.0000
  9 B      5.1007     5.0000    -0.1007     3.0968     3.0968    -0.0000
 10 B      4.9095     5.0000     0.0905     1.7318     1.7318    -0.0000
 11 B      5.0112     5.0000    -0.0112     2.4660     2.4660     0.0000

  Mayer bond orders larger than 0.100000
B(  0-B ,  1-B ) :   0.3476 B(  0-B ,  2-B ) :   0.1328 B(  0-B ,  3-B ) :   0.8417 
B(  0-B ,  4-B ) :   0.1281 B(  0-B ,  5-B ) :   0.2354 B(  0-B ,  7-B ) :   0.1995 
B(  0-B ,  8-B ) :   0.4065 B(  0-B ,  9-B ) :   0.1034 B(  1-B ,  2-B ) :   0.6482 
B(  1-B ,  4-B ) :   0.2284 B(  1-B ,  5-B ) :   0.6528 B(  1-B ,  7-B ) :   0.2791 
B(  1-B , 11-B ) :   0.1227 B(  2-B ,  4-B ) :   0.6822 B(  2-B ,  5-B ) :   0.2545 
B(  2-B ,  7-B ) :   0.1681 B(  2-B , 10-B ) :   0.1374 B(  3-B ,  4-B ) :   0.1302 
B(  3-B ,  7-B ) :   0.5682 B(  3-B ,  8-B ) :   0.3878 B(  4-B ,  5-B ) :   0.1474 
B(  4-B ,  6-B ) :   0.1533 B(  4-B ,  7-B ) :   0.8401 B(  4-B , 10-B ) :   0.2641 
B(  5-B ,  6-B ) :   0.1538 B(  5-B ,  9-B ) :   0.1588 B(  5-B , 11-B ) :   0.6446 
B(  6-B ,  8-B ) :   0.1624 B(  6-B ,  9-B ) :   0.4376 B(  6-B , 11-B ) :   0.5134 
B(  7-B ,  8-B ) :   0.1201 B(  7-B , 10-B ) :   0.4742 B(  8-B ,  9-B ) :   1.1787 
B(  8-B , 10-B ) :   0.1919 B(  8-B , 11-B ) :   0.2005 B(  9-B , 10-B ) :   0.2826 
B(  9-B , 11-B ) :   0.6208 

-------
TIMINGS
-------

Total SCF time: 0 days 0 hours 0 min 14 sec 

Total time                  ....      14.846 sec
Sum of individual times     ....      14.267 sec  ( 96.1%)

SCF preparation             ....       0.472 sec  (  3.2%)
Fock matrix formation       ....      12.072 sec  ( 81.3%)
  Startup                   ....       0.039 sec  (  0.3% of F)
  Split-RI-J                ....       4.176 sec  ( 34.6% of F)
  XC integration            ....       7.425 sec  ( 61.5% of F)
    XC Preparation          ....       0.000 sec  (  0.0% of XC)
    Basis function eval.    ....       1.888 sec  ( 25.4% of XC)
    Density eval.           ....       1.196 sec  ( 16.1% of XC)
    XC-Functional eval.     ....       0.264 sec  (  3.6% of XC)
    XC-Potential eval.      ....       1.399 sec  ( 18.8% of XC)
Diagonalization             ....       0.000 sec  (  0.0%)
Density matrix formation    ....       0.277 sec  (  1.9%)
Total Energy calculation    ....       0.132 sec  (  0.9%)
Population analysis         ....       0.035 sec  (  0.2%)
Orbital Transformation      ....       0.050 sec  (  0.3%)
Orbital Orthonormalization  ....       0.000 sec  (  0.0%)
DIIS solution               ....       0.829 sec  (  5.6%)
SOSCF solution              ....       0.400 sec  (  2.7%)
Finished LeanSCF after  14.9 sec

Maximum memory used throughout the entire LEANSCF-calculation: 9.9 MB


-------------------------------------------------------------------------------
                          DFT DISPERSION CORRECTION                            
                                                                               
                              DFTD3 V3.1  Rev 1                                
                          USING Becke-Johnson damping                          
-------------------------------------------------------------------------------
The BP86 functional is recognized
Active option DFTDOPT                   ...         4   

molecular C6(AA) [au] = 12126.087255 


            DFT-D V3
 parameters
 s6 scaling factor         :     1.0000 
 a1 scaling factor         :     0.3946 
 s8 scaling factor         :     3.2822 
 a2 scaling factor         :     4.8516 
 ad hoc parameters k1-k3   :    16.0000     1.3333    -4.0000 

 Edisp/kcal,au: -44.519228531772  -0.070945899023 
 E6   /kcal   : -12.975493893 
 E8   /kcal   : -31.543734639 
 % E8         :  70.854180719 

-------------------------   ----------------
Dispersion correction           -0.070945899
-------------------------   ----------------


-------------------------   --------------------
FINAL SINGLE POINT ENERGY      -296.621211389465
-------------------------   --------------------



           ************************************************************
           *        Program running with 8 parallel MPI-processes     *
           *              working on a common directory               *
           ************************************************************
------------------------------------------------------------------------------
                         ORCA SCF GRADIENT CALCULATION
------------------------------------------------------------------------------

Nuc. rep. gradient        (SHARK) ... done (  0.0 sec)
HCore & Overlap gradient  (SHARK) ... done (  0.1 sec)
Split-RIJ-J gradient      (SHARK) ... done (  0.4 sec)
XC gradient                       ... done (  0.8 sec)
Dispersion correction             ... done (  0.1 sec)

-------------------
DISPERSION GRADIENT
-------------------

   1   B   :    0.000353714    0.001267418   -0.002668175
   2   B   :   -0.002296599   -0.001640110    0.005783953
   3   B   :    0.000426753    0.001671125   -0.002013088
   4   B   :    0.001682867    0.000595969    0.001323468
   5   B   :    0.001719847   -0.000930467   -0.000110545
   6   B   :    0.000998063   -0.000113999   -0.002285357
   7   B   :   -0.000712570    0.000501268    0.002731873
   8   B   :   -0.001337528   -0.001340163   -0.001390075
   9   B   :   -0.000408792    0.001800420    0.000103286
  10   B   :   -0.000574578    0.000580161    0.002261838
  11   B   :   -0.000531159   -0.000373235   -0.001676777
  12   B   :    0.000679982   -0.002018388   -0.002060400

Difference to translation invariance:
           :    0.0000000000    0.0000000000    0.0000000000

Difference to rotation invariance:
           :    0.0000000000   -0.0000000000    0.0000000000

Norm of the Dispersion gradient    ...    0.0103565889
RMS gradient                       ...    0.0017260981
MAX gradient                       ...    0.0057839527

------------------
CARTESIAN GRADIENT
------------------

   1   B   :    0.040582794    0.015510274    0.031344981
   2   B   :    0.045468136    0.007234264   -0.036171028
   3   B   :    0.012805584   -0.063046440    0.036276022
   4   B   :    0.011474422    0.041215244   -0.056445176
   5   B   :   -0.037504262   -0.046161855   -0.029175225
   6   B   :    0.025389446   -0.018436007    0.036737636
   7   B   :   -0.021862571   -0.040186648    0.005654585
   8   B   :    0.010951251    0.019395473   -0.026511160
   9   B   :   -0.017060176    0.047279713    0.004087152
  10   B   :   -0.036723644    0.018484532   -0.012148094
  11   B   :   -0.034842010   -0.001867996   -0.016194351
  12   B   :    0.001321030    0.020579446    0.062544657

Difference to translation invariance:
           :   -0.0000000000   -0.0000000000    0.0000000000

Difference to rotation invariance:
           :   -0.0001084021    0.0000765200   -0.0002610893

Norm of the Cartesian gradient     ...    0.1923896981
RMS gradient                       ...    0.0320649497
MAX gradient                       ...    0.0630464403

-------
TIMINGS
-------

Total SCF gradient time     ....        1.356 sec

Densities                   ....       0.001 sec  (  0.1%)
One electron gradient       ....       0.070 sec  (  5.1%)
RI-J Coulomb gradient       ....       0.365 sec  ( 26.9%)
XC gradient                 ....       0.850 sec  ( 62.7%)

Maximum memory used throughout the entire SCFGRAD-calculation: 29.5 MB
------------------------------------------------------------------------------
                         ORCA GEOMETRY RELAXATION STEP
------------------------------------------------------------------------------

Reading the OPT-File                    .... done
Getting information on internals        .... done
Copying old internal coords+grads       .... done
Making the new internal coordinates     .... (2022 redundants) done
Validating the new internal coordinates .... (2022 redundants) done
Calculating the B-matrix                .... done
Calculating the G,G- and P matrices     .... done
Transforming gradient to internals      .... done
Projecting the internal gradient        .... done
Number of atoms                         ....  12
Number of internal coordinates          .... 230
Current Energy                          ....  -296.621211389 Eh
Current gradient norm                   ....     0.192389698 Eh/bohr
Maximum allowed component of the step   ....  0.300
Current trust radius                    ....  0.300
Evaluating the initial hessian          ....  (Almloef) done
Projecting the Hessian                  .... done
Forming the augmented Hessian           .... done
Diagonalizing the augmented Hessian     .... done
Last element of RFO vector              ....  0.748973153
Lowest eigenvalues of augmented Hessian:
 -0.117423337  0.012335209  0.015154976  0.015703383  0.017202000
Length of the computed step             ....  0.884678366
Warning: the length of the step is outside the trust region - taking restricted step instead
The input lambda is                     ....     0.011324
   iter:   5  x=   -0.009180  g= 4318.660366 f(x)=    36.523298
   iter:  10  x=   -0.187535  g=    9.851182 f(x)=     0.647920
   iter:  15  x=   -0.408914  g=    0.403390 f(x)=     0.000171
The output lambda is                    ....    -0.408914 (18 iterations)
The final length of the internal step   ....  0.300000000
Converting the step to Cartesian space:
 Initial RMS(Int)=    0.0197814142
Transforming coordinates:
 Iter   0:  RMS(Cart)=    0.0403511707 RMS(Int)=    0.0197835405
done
Storing new coordinates                 .... done

                                .--------------------.
          ----------------------|Geometry convergence|-------------------------
          Item                value                   Tolerance       Converged
          ---------------------------------------------------------------------
          RMS gradient        0.0089889511            0.0001000000      NO
          MAX gradient        0.0375854618            0.0003000000      NO
          RMS step            0.0197814142            0.0020000000      NO
          MAX step            0.0859659156            0.0040000000      NO
          -------------------------------------------------------------------------
          ........................................................
          Max(Bonds)      0.0455      Max(Angles)    0.99
          Max(Dihed)        1.03      Max(Improp)    0.00
          ---------------------------------------------------------------------

The optimization has not yet converged - more geometry cycles are needed


    ---------------------------------------------------------------------------
                         Redundant Internal Coordinates
[...]
      dz2     :     0.010996  d :     0.053078
      dxz     :     0.010744
      dyz     :     0.011381
      dx2y2   :     0.009076
      dxy     :     0.010881

  8 B s       :     3.151535  s :     3.151535
      pz      :     0.444013  p :     1.816306
      px      :     0.760168
      py      :     0.612125
      dz2     :     0.005317  d :     0.053040
      dxz     :     0.013223
      dyz     :     0.010373
      dx2y2   :     0.011196
      dxy     :     0.012931

  9 B s       :     2.558924  s :     2.558924
      pz      :     0.765151  p :     2.080685
      px      :     0.633031
      py      :     0.682504
      dz2     :     0.010731  d :     0.062205
      dxz     :     0.012411
      dyz     :     0.012267
      dx2y2   :     0.013879
      dxy     :     0.012918

 10 B s       :     3.173716  s :     3.173716
      pz      :     0.789066  p :     2.043979
      px      :     0.535837
      py      :     0.719077
      dz2     :     0.014104  d :     0.061057
      dxz     :     0.013710
      dyz     :     0.011018
      dx2y2   :     0.010107
      dxy     :     0.012118

 11 B s       :     3.149997  s :     3.149997
      pz      :     0.631423  p :     1.812787
      px      :     0.720139
      py      :     0.461225
      dz2     :     0.011090  d :     0.053072
      dxz     :     0.011151
      dyz     :     0.010892
      dx2y2   :     0.008701
      dxy     :     0.011237



                     *******************************
                     * LOEWDIN POPULATION ANALYSIS *
                     *******************************

----------------------
LOEWDIN ATOMIC CHARGES
----------------------
   0 B :   -0.074343
   1 B :   -0.074972
   2 B :    0.037361
   3 B :    0.038570
   4 B :    0.037256
   5 B :    0.037614
   6 B :   -0.074447
   7 B :    0.035966
   8 B :    0.036280
   9 B :    0.037725
  10 B :   -0.073940
  11 B :    0.036929

-------------------------------
LOEWDIN REDUCED ORBITAL CHARGES
-------------------------------
  0 B s       :     2.669736  s :     2.669736
      pz      :     0.772185  p :     2.261045
      px      :     0.713671
      py      :     0.775189
      dz2     :     0.011283  d :     0.143562
      dxz     :     0.027407
      dyz     :     0.034990
      dx2y2   :     0.042094
      dxy     :     0.027789

  1 B s       :     2.669923  s :     2.669923
      pz      :     0.773387  p :     2.261746
      px      :     0.602690
      py      :     0.885669
      dz2     :     0.011204  d :     0.143303
      dxz     :     0.036115
      dyz     :     0.026060
      dx2y2   :     0.032555
      dxy     :     0.037369

  2 B s       :     2.741914  s :     2.741914
      pz      :     0.481657  p :     2.091290
      px      :     0.889755
      py      :     0.719878
      dz2     :     0.014413  d :     0.129434
      dxz     :     0.027061
      dyz     :     0.028917
      dx2y2   :     0.034931
      dxy     :     0.024112

  3 B s       :     2.655033  s :     2.655033
      pz      :     0.647503  p :     2.148950
      px      :     0.774085
      py      :     0.727362
      dz2     :     0.033608  d :     0.157447
      dxz     :     0.030286
      dyz     :     0.031384
      dx2y2   :     0.034020
      dxy     :     0.028148

  4 B s       :     2.654388  s :     2.654388
      pz      :     0.749350  p :     2.150690
      px      :     0.855602
      py      :     0.545737
      dz2     :     0.029527  d :     0.157667
      dxz     :     0.030100
      dyz     :     0.031909
      dx2y2   :     0.036987
      dxy     :     0.029144

  5 B s       :     2.654591  s :     2.654591
      pz      :     0.640982  p :     2.150225
      px      :     0.737290
      py      :     0.771954
      dz2     :     0.033384  d :     0.157570
      dxz     :     0.026406
      dyz     :     0.035155
      dx2y2   :     0.030934
      dxy     :     0.031691

  6 B s       :     2.670138  s :     2.670138
      pz      :     0.847666  p :     2.261004
      px      :     0.662135
      py      :     0.751203
      dz2     :     0.033950  d :     0.143304
      dxz     :     0.028868
      dyz     :     0.031106
      dx2y2   :     0.022567
      dxy     :     0.026814

  7 B s       :     2.741183  s :     2.741183
      pz      :     0.686544  p :     2.093261
      px      :     0.885885
      py      :     0.520832
      dz2     :     0.022211  d :     0.129590
      dxz     :     0.026708
      dyz     :     0.025350
      dx2y2   :     0.027208
      dxy     :     0.028113

  8 B s       :     2.741672  s :     2.741672
      pz      :     0.482606  p :     2.092581
      px      :     0.920088
      py      :     0.689887
      dz2     :     0.014332  d :     0.129468
      dxz     :     0.034613
      dyz     :     0.021336
      dx2y2   :     0.026213
      dxy     :     0.032973

  9 B s       :     2.654477  s :     2.654477
      pz      :     0.749973  p :     2.149922
      px      :     0.639841
      py      :     0.760107
      dz2     :     0.029393  d :     0.157876
      dxz     :     0.027520
      dyz     :     0.034951
      dx2y2   :     0.033530
      dxy     :     0.032483

 10 B s       :     2.669983  s :     2.669983
      pz      :     0.844517  p :     2.260420
      px      :     0.642545
      py      :     0.773358
      dz2     :     0.034384  d :     0.143538
      dxz     :     0.030275
      dyz     :     0.029690
      dx2y2   :     0.020523
      dxy     :     0.028666

 11 B s       :     2.741497  s :     2.741497
      pz      :     0.687822  p :     2.092030
      px      :     0.891529
      py      :     0.512680
      dz2     :     0.022545  d :     0.129543
      dxz     :     0.027288
      dyz     :     0.024560
      dx2y2   :     0.024914
      dxy     :     0.030237



                      *****************************
                      * MAYER POPULATION ANALYSIS *
                      *****************************

  NA   - Mulliken gross atomic population
  ZA   - Total nuclear charge
  QA   - Mulliken gross atomic charge
  VA   - Mayer's total valence
  BVA  - Mayer's bonded valence
  FA   - Mayer's free valence

  ATOM       NA         ZA         QA         VA         BVA        FA
  0 B      5.2737     5.0000    -0.2737     4.0818     4.0818    -0.0000
  1 B      5.2751     5.0000    -0.2751     4.0764     4.0764     0.0000
  2 B      5.0182     5.0000    -0.0182     3.6991     3.6991    -0.0000
  3 B      4.7077     5.0000     0.2923     3.3745     3.3745    -0.0000
  4 B      4.7039     5.0000     0.2961     3.3690     3.3690    -0.0000
  5 B      4.7074     5.0000     0.2926     3.3730     3.3730     0.0000
  6 B      5.2795     5.0000    -0.2795     4.0695     4.0695    -0.0000
  7 B      5.0172     5.0000    -0.0172     3.7030     3.7030    -0.0000
  8 B      5.0209     5.0000    -0.0209     3.7024     3.7024    -0.0000
  9 B      4.7018     5.0000     0.2982     3.3677     3.3677     0.0000
 10 B      5.2788     5.0000    -0.2788     4.0723     4.0723    -0.0000
 11 B      5.0159     5.0000    -0.0159     3.6997     3.6997     0.0000

  Mayer bond orders larger than 0.100000
B(  0-B ,  1-B ) :   0.8903 B(  0-B ,  2-B ) :   0.2069 B(  0-B ,  3-B ) :   0.6521 
B(  0-B ,  5-B ) :   0.6510 B(  0-B ,  8-B ) :   1.3670 B(  1-B ,  2-B ) :   1.3668 
B(  1-B ,  3-B ) :   0.6489 B(  1-B ,  5-B ) :   0.6496 B(  1-B ,  8-B ) :   0.2075 
B(  2-B ,  3-B ) :   0.3184 B(  2-B ,  4-B ) :   0.9881 B(  2-B ,  5-B ) :   0.3197 
B(  2-B ,  7-B ) :   0.1489 B(  2-B ,  8-B ) :   0.1104 B(  2-B , 11-B ) :   0.1478 
B(  3-B ,  4-B ) :   0.1329 B(  3-B ,  5-B ) :   0.1392 B(  3-B ,  7-B ) :   0.9908 
B(  3-B ,  8-B ) :   0.3206 B(  3-B ,  9-B ) :   0.1364 B(  4-B ,  5-B ) :   0.1339 
B(  4-B ,  6-B ) :   0.6457 B(  4-B ,  7-B ) :   0.3220 B(  4-B ,  9-B ) :   0.1399 
B(  4-B , 10-B ) :   0.6464 B(  4-B , 11-B ) :   0.3212 B(  5-B ,  8-B ) :   0.3213 
B(  5-B ,  9-B ) :   0.1335 B(  5-B , 11-B ) :   0.9880 B(  6-B ,  7-B ) :   0.2065 
B(  6-B ,  9-B ) :   0.6441 B(  6-B , 10-B ) :   0.8990 B(  6-B , 11-B ) :   1.3648 
B(  7-B ,  8-B ) :   0.1457 B(  7-B ,  9-B ) :   0.3210 B(  7-B , 10-B ) :   1.3643 
B(  7-B , 11-B ) :   0.1108 B(  8-B ,  9-B ) :   0.9909 B(  8-B , 11-B ) :   0.1488 
B(  9-B , 10-B ) :   0.6470 B(  9-B , 11-B ) :   0.3182 B( 10-B , 11-B ) :   0.2057 


-------
TIMINGS
-------

Total SCF time: 0 days 0 hours 0 min 6 sec 

Total time                  ....       6.933 sec
Sum of individual times     ....       6.512 sec  ( 93.9%)

SCF preparation             ....       0.562 sec  (  8.1%)
Fock matrix formation       ....       4.629 sec  ( 66.8%)
  Startup                   ....       0.073 sec  (  1.6% of F)
  Split-RI-J                ....       1.047 sec  ( 22.6% of F)
  XC integration            ....       3.432 sec  ( 74.1% of F)
    XC Preparation          ....       0.000 sec  (  0.0% of XC)
    Basis function eval.    ....       0.456 sec  ( 13.3% of XC)
    Density eval.           ....       0.356 sec  ( 10.4% of XC)
    XC-Functional eval.     ....       0.054 sec  (  1.6% of XC)
    XC-Potential eval.      ....       0.411 sec  ( 12.0% of XC)
Diagonalization             ....       0.000 sec  (  0.0%)
Density matrix formation    ....       0.143 sec  (  2.1%)
Total Energy calculation    ....       0.165 sec  (  2.4%)
Population analysis         ....       0.186 sec  (  2.7%)
Orbital Transformation      ....       0.016 sec  (  0.2%)
Orbital Orthonormalization  ....       0.000 sec  (  0.0%)
DIIS solution               ....       0.141 sec  (  2.0%)
SOSCF solution              ....       0.670 sec  (  9.7%)
Finished LeanSCF after   7.3 sec

Maximum memory used throughout the entire LEANSCF-calculation: 12.2 MB


-------------------------------------------------------------------------------
                          DFT DISPERSION CORRECTION                            
                                                                               
                              DFTD3 V3.1  Rev 1                                
                          USING Becke-Johnson damping                          
-------------------------------------------------------------------------------
The BP86 functional is recognized
Active option DFTDOPT                   ...         4   

molecular C6(AA) [au] = 4201.443684 


            DFT-D V3
 parameters
 s6 scaling factor         :     1.0000 
 a1 scaling factor         :     0.3946 
 s8 scaling factor         :     3.2822 
 a2 scaling factor         :     4.8516 
 ad hoc parameters k1-k3   :    16.0000     1.3333    -4.0000 

 Edisp/kcal,au: -23.563443822313  -0.037550733945 
 E6   /kcal   :  -6.715228438 
 E8   /kcal   : -16.848215384 
 % E8         :  71.501498299 

-------------------------   ----------------
Dispersion correction           -0.037550734
-------------------------   ----------------


-------------------------   --------------------
FINAL SINGLE POINT ENERGY      -297.686248026626
-------------------------   --------------------

                                *** OPTIMIZATION RUN DONE ***



           ************************************************************
           *        Program running with 8 parallel MPI-processes     *
           *              working on a common directory               *
           ************************************************************

------------------------------------------------------------------------------
                              ORCA PROPERTY CALCULATIONS
------------------------------------------------------------------------------

GBWName                                 ... random5_nn1.70.gbw
Number of atoms                         ...     12
Number of basis functions               ...    168
Max core memory                         ...   2500 MB

Electric properties:
Dipole moment                           ... YES
Quadrupole moment                       ...  NO
Static polarizability (Dipole/Dipole)   ...  NO
Static polarizability (Dipole/Quad.)    ...  NO
Static polarizability (Quad./Quad.)     ...  NO
Static polarizability (Velocity)        ...  NO
Static hyperpolarizability              ...  NO

Atomic electric properties:
Dipole moment                           ...  NO
Quadrupole moment                       ...  NO
Static polarizability                   ...  NO

Choice of electric origin               ... Center of mass
Position of electric origin             ...    -0.000000     0.000000    -0.000000

General magnetic properties:
Magnetizability                         ...  NO

EPR properties:
g-Tensor (aka g-matrix)                 ...  NO
Zero-Field splitting spin-orbit         ...  NO
Zero-field splitting spin-spin          ...  NO
Hyperfine couplings                     ...  NO (   0 nuclei)
Quadrupole couplings                    ...  NO (   0 nuclei)
Contact density                         ...  NO (   0 nuclei)

NMR properties:
Chemical shifts                         ...  NO (   0 nuclei)
Spin-rotation constants                 ...  NO (   0 nuclei)
Spin-spin couplings                     ...  NO (   0 nuclei,    0 pairs)

Choice of magnetic origin               ... GIAO
Position of magnetic origin             ...     0.000000     0.000000     0.000000

Properties with geometric perturbations:
SCF Hessian                             ...  NO
IR spectrum                             ...  NO
VCD spectrum                            ...  NO
X-ray spectroscopy properties:
SCF XES/XAS/RIXS spectra                ...  NO

SCF SOC stabilization energy            ...  NO
Diagonal Born-Oppenheimer correction    ...  NO

-------------
DIPOLE MOMENT
-------------

Method             : SCF
Type of density    : Electron Density
Multiplicity       :   1
Irrep              :   0
Energy             :  -297.6486972926805947 Eh
Basis              : AO
                                X                 Y                 Z
Electronic contribution:      0.001377905      -0.002059831       0.000861478
Nuclear contribution   :     -0.000000000       0.000000000      -0.000000000
                        -----------------------------------------
Total Dipole Moment    :      0.001377905      -0.002059831       0.000861478
                        -----------------------------------------
Magnitude (a.u.)       :      0.002623675
Magnitude (Debye)      :      0.006668852



--------------------
Rotational spectrum 
--------------------
 
Rotational constants in cm-1:             0.089743             0.053066             0.053040 
Rotational constants in MHz :          2690.424796          1590.869032          1590.109593 

Dipole components along the rotational axes: 
x,y,z [a.u.] :    -0.000760     0.000479     0.002465 
x,y,z [Debye]:    -0.001932     0.001217     0.006266 

 

Dipole moment calculation done in   0.0 sec 

Maximum memory used throughout the entire PROP-calculation: 9.9 MB

--------------------------------
SUGGESTED CITATIONS FOR THIS RUN
--------------------------------

Below you find a list of papers that are relevant to this ORCA run
We neither can nor want to force you to cite these papers, but we appreciate if you do
You receive ORCA, which is the product of decades of hard work by many enthusiastic individuals, for free
The only thing we kindly ask in return is that you cite our papers,
We deeply appreciate it, if you show your appreciation for ORCA by not just citing the generic ORCA reference.

Please note that relegating all ORCA citations to the supporting information does *not* help us.
SI sections are not indexed - citations you put there will not count into any citation statistics
But we need these citations in order to attract the funding resources that allow us to do what we are doing

Therefore, if you are a happy ORCA user, please consider citing a few of the papers listed below in the main body of your paper

In addition to the list printed below, the program has created the file random5_nn1.70.bibtex that contains the list in bibtex format
You can import this file easily into all common literature databanks and citation aid programs

It goes without saying that in many instances, there are alternative algorithms to achieve similar
results as the ones you have gotten from ORCA. It is, of course, also the case that in some instances
ORCA just re-implements algorithms worked out by others. We are fully aware of that and we are also
fully appreciative of our colleagues work. Hence this citation list should not be read as indicating
that the listed papers, which are focused on our own work, are the only ones worth citing. It simply
meant to make it easier for users to cite ORCA specific papers. It is not a substitute for doing your
own literature research and citing the relevant literature in a scientifically appropriate manner.

List of essential papers. We consider these as the minimum necessary citations

  1. Neese, F.
     Software update: the ORCA program system, version 6.0
     WIRES Comput. Molec. Sci. 2025 15(1), e70019
     doi.org/10.1002/wcms.70019

List of papers to cite with high priority. The work reported in these papers was absolutely
necessary for this run to complete.
Our perspective: the developers of density functionals and basis sets usually get cited in chemistry papers
Good! But without the algorithms to do something with them, the functionals or basis sets would not do anything.
Hence, in our opinion, the algorithm design and method developments papers are equally worthy of getting cited

  1. Neese, F.
     An improvement of the resolution of the identity approximation for the formation of the Coulomb matrix
     J. Comp. Chem. 2003 24(14), 1740-1747
     doi.org/10.1002/jcc.10318
  2. Grimme, S.; Antony, J.; Ehrlich, S.; Krieg, H.
     A consistent and accurate ab initio parametrization of density functional dispersion correction (DFT-D) for the 94 elements H-Pu
     J. Chem. Phys. 2010 132 , 154104
     doi.org/10.1063/1.3382344
  3. Grimme, S.; Ehrlich, S.; Goerigk, L.
     Effect of the damping function in dispersion corrected density functional theory
     J. Comput. Chem. 2011 32(7), 1456-1465
     doi.org/10.1002/jcc.21759
  4. Neese, F.
     The SHARK Integral Generation and Digestion System
     J. Comp. Chem. 2022 44(3), 381
     doi.org/10.1002/jcc.26942

List of suggested additional citations. These are papers that are important in the 'surrounding' of 
of this run, or papers that preceded the highly important papers. If you like your results we are grateful for a citation.

  1. Neese, F.
     The ORCA program system
     WIRES Comput. Molec. Sci. 2012 2(1), 73-78
     doi.org/10.1002/wcms.81
  2. Neese, F.
     Software update: the ORCA program system, version 4.0
     WIRES Comput. Molec. Sci. 2018 8(1), 1-6
     doi.org/10.1002/wcms.1327
  3. Neese, F.; Wennmohs, F.; Becker, U.; Riplinger, C.
     The ORCA quantum chemistry program package
     J. Chem. Phys. 2020 152(22), 224108
     doi.org/10.1063/5.0004608
  4. Neese, F.
     Software update: The ORCA program system—Version 5.0
     WIRES Comput. Molec. Sci. 2022 12(1), e1606
     doi.org/10.1002/wcms.1606

List of optional additional citations

  1. Neese, F.
     Approximate second-order SCF convergence for spin unrestricted wavefunctions
     Chem. Phys. Lett. 2000 325(1-3), 93-98
     doi.org/10.1016/s0009-2614(00)00662-x

Timings for individual modules:

Sum of individual times          ...      615.890 sec (=  10.265 min)
Startup calculation              ...       79.169 sec (=   1.319 min)  12.9 %
SCF iterations                   ...      424.050 sec (=   7.068 min)  68.9 %
Property calculations            ...        0.793 sec (=   0.013 min)   0.1 %
SCF Gradient evaluation          ...      110.961 sec (=   1.849 min)  18.0 %
Geometry relaxation              ...        0.917 sec (=   0.015 min)   0.1 %
                             ****ORCA TERMINATED NORMALLY****
TOTAL RUN TIME: 0 days 0 hours 10 minutes 52 seconds 946 msec
