
                                 *****************
                                 * O   R   C   A *
                                 *****************

                                            #,                                       
                                            ###                                      
                                            ####                                     
                                            #####                                    
                                            ######                                   
                                           ########,                                 
                                     ,,################,,,,,                         
                               ,,#################################,,                 
                          ,,##########################################,,             
                       ,#########################################, ''#####,          
                    ,#############################################,,   '####,        
                  ,##################################################,,,,####,       
                ,###########''''           ''''###############################       
              ,#####''   ,,,,##########,,,,          '''####'''          '####       
            ,##' ,,,,###########################,,,                        '##       
           ' ,,###''''                  '''############,,,                           
         ,,##''                                '''############,,,,        ,,,,,,###''
      ,#''                                            '''#######################'''  
     '                                                          ''''####''''         
             ,#######,   #######,   ,#######,      ##                                
            ,#'     '#,  ##    ##  ,#'     '#,    #''#        ,####,    ,#,          
            ##       ##  ##   ,#'  ##            #'  '#       #'       ,# #          
            ##       ##  #######   ##           ,######,      #####,      #          
            '#,     ,#'  ##    ##  '#,     ,#' ,#      #,     #,   #      #          
             '#######'   ##     ##  '#######'  #'      '#     '####' #    #          



                #########################################################
                #                        -***-                          #
                #          Department of theory and spectroscopy        #
                #                                                       #
                #                      Frank Neese                      #
                #                                                       #
                #     Directorship, Architecture, Infrastructure        #
                #                    SHARK, DRIVERS                     #
                #        Core code/Algorithms in most modules           #
                #                                                       #
                #        Max Planck Institute fuer Kohlenforschung      #
                #                Kaiser Wilhelm Platz 1                 #
                #                 D-45470 Muelheim/Ruhr                 #
                #                      Germany                          #
                #                                                       #
                #                  All rights reserved                  #
                #                        -***-                          #
                #########################################################


                         Program Version 6.1.1  -  RELEASE   -
                                (GIT: $487d211c$)
                          ($2025-11-21 10:33:24 +0100$)
                                                                         
                                  - NO-DMRG VERSION -                    
                                                                         


 With contributions from (in alphabetic order):
[Max-Planck-Institut fuer Kohlenforschung]                               
  Daniel Aravena         : Magnetic Suceptibility                        
  Michael Atanasov       : Ab Initio Ligand Field Theory (pilot matlab implementation)
  Alexander A. Auer      : GIAO ZORA, VPT2 properties, NMR spectrum      
  Ute Becker             : All parallelization in ORCA, NUMFREQ, NUMCALC 
  Giovanni Bistoni       : ED, misc. LED, open-shell LED, HFLD           
  Dmytro Bykov           : pre 5.0 version of the SCF Hessian            
  Marcos Casanova-Páez   : Triplet and SCS-CIS(D). UHF-(DLPNO)-IP/EA/STEOM-CCSD. UHF-CVS-IP/STEOM-CCSD   
  Vijay G. Chilkuri      : MRCI spin determinant printing, contributions to CSF-ICE 
  Pauline Colinet        : FMM embedding                                 
  Dipayan Datta          : RHF DLPNO-CCSD density                        
  Achintya Kumar Dutta   : EOM-CC, STEOM-CC                              
  Nicolas Foglia         : Exact transition moments, OPA infrastructure, MCD improvements    
  Dmitry Ganyushin       : Spin-Orbit,Spin-Spin,Magnetic field MRCI      
  Miquel Garcia-Rates    : C-PCM and meta-GGA Hessian, CCSD/C-PCM, Gaussian charge scheme 
  Tiago L. C. Gouveia    : GS-ROHF, GS-ROCIS                             
  Yang Guo               : DLPNO-NEVPT2, F12-NEVPT2, CIM, IAO-localization        
  Andreas Hansen         : Spin unrestricted coupled pair/coupled cluster methods 
  Ingolf Harden          : AUTO-CI MPn and infrastructure                
  Benjamin Helmich-Paris : MC-RPA, TRAH-(SCF,CASSCF), AVAS, COSX integrals, SCF dyn. polar., MC-PDFT, srDFT 
  Lee Huntington         : MR-EOM, pCC                                   
  Robert Izsak           : Overlap fitted RIJCOSX, COSX-SCS-MP3, EOM     
  Riya Kayal             : Wick's Theorem for AUTO-CI, AUTO-CI UHF-CCSDT 
  Emily Kempfer          : AUTO-CI RHF CISDT and CCSDT, approximate NEVPT4
  Christian Kollmar      : KDIIS, OOCD, Brueckner-CCSD(T), CCSD density, CASPT2, CASPT2-K, improved NEVPT2 
  Axel Koslowski         : Symmetry handling                             
  Simone Kossmann        : meta-GGA functionals, TD-DFT gradient, OOMP2, (MP2 Hessian; deprecated post 5.0) 
  Lucas Lang             : DCDCAS, Hyperfine gauge corrections, ICE-SOC+SSC
  Marvin Lechner         : AUTO-CI (C++ implementation), FIC-MRCC        
  Spencer Leger          : CASSCF response                               
  Dagmar Lenk            : GEPOL surface, SMD, ORCA-2-JSON               
  Dimitrios Liakos       : Extrapolation schemes; Compound Job, Property file
  Dimitrios Manganas     : Further ROCIS development; embedding schemes. LFT, Crystal Embedding 
  Dimitrios Pantazis     : SARC Basis sets                               
  Anastasios Papadopoulos: AUTO-CI, single reference methods and gradients 
  Taras Petrenko         : pre 6.0 DFT Hessian and TD-DFT gradient,  ECA, NRVS 
  Petra Pikulova         : Analytic Raman intensities                    
  Peter Pinski           : DLPNO-MP2, DLPNO-MP2 Gradient                 
  Shashank Vittal Rao    : ES-AILFT, MagRelax                            
  Christoph Reimann      : Effective Core Potentials                     
  Marius Retegan         : Local ZFS, SOC                                
  Christoph Riplinger    : Optimizer, TS searches, QM/MM, DLPNO-CCSD(T), (RO)-DLPNO pert. Triples 
  Michael Roemelt        : Original ROCIS implementation, recursive CI coupling coefficients
  Masaaki Saitow         : Open-shell DLPNO-CCSD energy and density      
  Barbara Sandhoefer     : DKH picture change effects                    
  Yorick L. A. Schmerwitz: GMF and freeze-and-release deltaSCF, NEB S-IDPP initial path                    
  Kantharuban Sivalingam : CASSCF convergence/infrastructure, NEVPT2, NEVPT3, NEVPT4(SD), FIC-MRCI and CEPA variants
  Bernardo de Souza      : ESD, SOC TD-DFT                               
  Georgi L. Stoychev     : AutoAux, RI-MP2 NMR, DLPNO-MP2 response, X2C  
  Van Anh Tran           : RI-MP2 g-tensors                              
  Willem Van den Heuvel  : Paramagnetic NMR                              
  Zikuan Wang            : NOTCH, Electric field optimization            
  Frank Wennmohs         : Technical directorship and infrastructure     
  Hang Xu                : AUTO-CI-Response properties                   
                                                                         
[FACCTs GmbH]                                                            
  Markus Bursch, Nicolas Foglia, Miquel Garcia-Rates, Ingolf Harden, Hagen Neugebauer, Anastasios Papadopoulos, 
  Christoph Riplinger, Bernardo de Souza, Georgi L. Stoychev                                                    
                                                                 
  APM, various basis sets, CI-OPT, improved COSX, DLPNO-Multilevel,           
  DOCKER, DRACO, updates on ESD, Fragmentator, GOAT, IRC, LR-CPCM, L-BFGS, MBIS, meta-GGA TD-DFT gradient, ML-optimized integration grids, 
  MM, NACMEs, nearIR, NEB, NEB-TS, NL-DFT gradient (VV10), 2- and 3-layer-ONIOM, interface openCOSMO-RS, QMMM,   
  Crystal-QMMM, RESP, rigid body optimization, SF, symmetry and pop. for TD-DFT, various functionals, SOLVATOR                                   
                                                                         
[Other institutions]                                                     
  V. Asgeirsson          : NEB                                           
  Christoph Bannwarth    : sTDA-DFT, sTD-DFT, PBEh-3c, B97-3c, D3        
  Giovanni Bistoni       : ETS/NOCV, ADLD/ADEX, COVALED                  
  Martin Brehm           : Molecular dynamics                            
  Ronald Cardenas        : ETS/NOCV                                      
  Martina Colucci        : COVALED                                       
  Sebastian Ehlert       : rSCAN, r2SCAN, r2SCAN-3c, D4, dhf basis sets  
  Marvin Friede          : D4 for Fr, Ra, Ac-Lr                          
  Lars Goerigk           : TD-DFT with DH, B97 family of functionals     
  Stefan Grimme          : VdW corrections, initial TS optimization, DFT functionals, gCP, sTDA/sTD-DF 
  Waldemar Hujo          : DFT-NL                                        
  H. Jonsson             : NEB                                           
  Holger Kruse           : gCP                                           
  Marcel Mueller         : wB97X-3c, vDZP basis set                      
  Hagen Neugebauer       : wr2SCAN, Native XTB                           
  Gianluca Regni         : ADLD/ADEX                                     
  Tobias Risthaus        : pre 6.0 range-separated hybrid DFT and stability analysis
  Lukas Wittmann         : regularized MP2, r2SCAN double-hybrids, wr2SCAN        
                                                                         
We gratefully acknowledge several colleagues who have allowed us to      
interface, adapt or use parts of their codes:                            
  Ed Valeev, F. Pavosevic, A. Kumar             : LibInt (2-el integral package), F12 methods 
  Garnet Chan, S. Sharma, J. Yang, R. Olivares  : DMRG                   
  Ulf Ekstrom                                   : XCFun DFT Library      
  Mihaly Kallay                                 : mrcc  (arbitrary order and MRCC methods)
  Frank Weinhold                                : gennbo (NPA and NBO analysis)           
  Simon Mueller                                 : openCOSMO-RS                            
  Christopher J. Cramer and Donald G. Truhlar   : smd solvation model                     
  S Lehtola, MJT Oliveira, MAL Marques          : LibXC Library                           
  Liviu Ungur et al                             : ANISO software                          


 Your calculation uses the libint2 library for the computation of 2-el integrals
 For citations please refer to: http://libint.valeyev.net

 Your ORCA version has been built with support for libXC version: 7.0.0
 For citations please refer to: https://libxc.gitlab.io

 This ORCA versions uses:
   CBLAS   interface :  Fast vector & matrix operations
   LAPACKE interface :  Fast linear algebra routines
   SCALAPACK package :  Parallel linear algebra routines
   Shared memory     :  Shared parallel matrices
   BLAS/LAPACK       :  OpenBLAS 0.3.29  USE64BITINT DYNAMIC_ARCH NO_AFFINITY Zen SINGLE_THREADED
        Core in use  :  Zen
   Copyright (c) 2011-2014, The OpenBLAS Project


  ***********************************
  * Starting time: Thu Apr 23 10:49:08 2026
  * Host name:     vmi3233575
  * Process ID:    1141220
  * Working dir.:  /root/b12_scan/jobs/cuboctahedron_nn2.50
  ***********************************

NOTE: MaxCore=2500 MB was set to SCF,MP2,MDCI,CIPSI,MRCI,RASCI and CIS
      => If you want to overwrite this, your respective input block should be placed after the MaxCore statement
Your calculation utilizes the atom-pairwise dispersion correction
with the Becke-Johnson damping scheme (D3BJ)


================================================================================

----- Orbital basis set information -----
Your calculation utilizes the basis: def2-SVP
   F. Weigend and R. Ahlrichs, Phys. Chem. Chem. Phys. 7, 3297 (2005).

----- AuxJ basis set information -----
Your calculation utilizes the auxiliary basis: def2/J
   H-Rn: F. Weigend, Phys. Chem. Chem. Phys. 8, 1057 (2006).
   Fr-Lr: K. Eichkorn, F. Weigend, O. Treutler, R. Ahlrichs; Theor. Chem. Acc. 97, 119 (1997).

================================================================================
                                        WARNINGS
                       Please study these warnings very carefully!
================================================================================


WARNING: Geometry Optimization
  ===> : Switching off AutoStart
         For restart on a previous wavefunction, please use MOREAD

================================================================================
                                       INPUT FILE
================================================================================
NAME = cuboctahedron_nn2.50.inp
|  1> ! BP86 def2-SVP def2/J RI Opt TightSCF D3BJ
|  2> ! SlowConv
|  3> 
|  4> %pal nprocs 8 end
|  5> %maxcore 2500
|  6> 
|  7> %geom
|  8>   MaxIter 300
|  9> end
| 10> 
| 11> * xyz 0 1
| 12> B      0.00000000     -1.76776695     -1.76776695
| 13> B     -1.76776695      0.00000000     -1.76776695
| 14> B     -1.76776695     -1.76776695      0.00000000
| 15> B      0.00000000     -1.76776695      1.76776695
| 16> B     -1.76776695      0.00000000      1.76776695
| 17> B     -1.76776695      1.76776695      0.00000000
| 18> B      0.00000000      1.76776695     -1.76776695
| 19> B      1.76776695      0.00000000     -1.76776695
| 20> B      1.76776695     -1.76776695      0.00000000
| 21> B      0.00000000      1.76776695      1.76776695
| 22> B      1.76776695      0.00000000      1.76776695
| 23> B      1.76776695      1.76776695      0.00000000
| 24> *
| 25> 
| 26>                          ****END OF INPUT****
================================================================================

                       *****************************
                       * Geometry Optimization Run *
                       *****************************

Geometry optimization settings:
Update method            Update   .... BFGS
Choice of coordinates    CoordSys .... (2022) Redundant Internals
Initial Hessian          InHess   .... Almloef's Model
Max. no of cycles        MaxIter  .... 300

Convergence Tolerances:
Energy Change            TolE     ....  5.0000e-06 Eh
Max. Gradient            TolMAXG  ....  3.0000e-04 Eh/bohr
RMS Gradient             TolRMSG  ....  1.0000e-04 Eh/bohr
Max. Displacement        TolMAXD  ....  4.0000e-03 bohr
RMS Displacement         TolRMSD  ....  2.0000e-03 bohr
Strict Convergence                .... False

------------------------------------------------------------------------------
                        ORCA OPTIMIZATION COORDINATE SETUP
------------------------------------------------------------------------------

The optimization will be done in redundant internal coordinates (2022)
Making redundant internal coordinates   ...  (2022 redundants) done
Evaluating the initial hessian          ...  (Almloef) done
Evaluating the coordinates              ...  done
Calculating the B-matrix                .... done
Calculating the G-matrix                .... done
The number of degrees of freedom        ....  240

    -----------------------------------------------------------------
                    Redundant Internal Coordinates


    -----------------------------------------------------------------
         Definition                    Initial Value    Approx d2E/dq
    -----------------------------------------------------------------
      1. B(B   1,B   0)                  2.5000         0.014205   
      2. B(B   2,B   1)                  2.5000         0.014205   
      3. B(B   2,B   0)                  2.5000         0.014205   
      4. B(B   3,B   2)                  2.5000         0.014205   
      5. B(B   4,B   3)                  2.5000         0.014205   
      6. B(B   4,B   2)                  2.5000         0.014205   
      7. B(B   5,B   1)                  2.5000         0.014205   
      8. B(B   5,B   4)                  2.5000         0.014205   
      9. B(B   6,B   1)                  2.5000         0.014205   
     10. B(B   6,B   5)                  2.5000         0.014205   
     11. B(B   7,B   6)                  2.5000         0.014205   
     12. B(B   7,B   0)                  2.5000         0.014205   
     13. B(B   8,B   0)                  2.5000         0.014205   
     14. B(B   8,B   3)                  2.5000         0.014205   
     15. B(B   8,B   7)                  2.5000         0.014205   
     16. B(B   9,B   4)                  2.5000         0.014205   
     17. B(B   9,B   5)                  2.5000         0.014205   
     18. B(B  10,B   9)                  2.5000         0.014205   
     19. B(B  10,B   3)                  2.5000         0.014205   
     20. B(B  10,B   8)                  2.5000         0.014205   
     21. B(B  11,B   6)                  2.5000         0.014205   
     22. B(B  11,B  10)                  2.5000         0.014205   
     23. B(B  11,B   9)                  2.5000         0.014205   
     24. B(B  11,B   7)                  2.5000         0.014205   
     25. A(B   1,B   0,B   8)          120.0000         0.154165   
     26. A(B   7,B   0,B   8)           60.0000         0.154165   
     27. A(B   1,B   0,B   7)           90.0000         0.154165   
     28. A(B   1,B   0,B   2)           60.0000         0.154165   
     29. A(B   2,B   0,B   8)           90.0000         0.154165   
     30. A(B   2,B   0,B   7)          120.0000         0.154165   
     31. A(B   0,B   1,B   6)           90.0000         0.154165   
     32. A(B   2,B   1,B   5)           90.0000         0.154165   
     33. A(B   0,B   1,B   2)           60.0000         0.154165   
     34. A(B   0,B   1,B   5)          120.0000         0.154165   
     35. A(B   5,B   1,B   6)           60.0000         0.154165   
     36. A(B   2,B   1,B   6)          120.0000         0.154165   
     37. A(B   1,B   2,B   3)          120.0000         0.154165   
     38. A(B   3,B   2,B   4)           60.0000         0.154165   
     39. A(B   1,B   2,B   4)           90.0000         0.154165   
     40. A(B   0,B   2,B   1)           60.0000         0.154165   
     41. A(B   0,B   2,B   3)           90.0000         0.154165   
     42. A(B   0,B   2,B   4)          120.0000         0.154165   
     43. A(B   2,B   3,B   8)           90.0000         0.154165   
     44. A(B   2,B   3,B   4)           60.0000         0.154165   
     45. A(B   4,B   3,B  10)           90.0000         0.154165   
     46. A(B   8,B   3,B  10)           60.0000         0.154165   
     47. A(B   4,B   3,B   8)          120.0000         0.154165   
     48. A(B   2,B   3,B  10)          120.0000         0.154165   
     49. A(B   3,B   4,B   5)          120.0000         0.154165   
     50. A(B   2,B   4,B   9)          120.0000         0.154165   
     51. A(B   5,B   4,B   9)           60.0000         0.154165   
     52. A(B   3,B   4,B   9)           90.0000         0.154165   
     53. A(B   2,B   4,B   5)           90.0000         0.154165   
     54. A(B   2,B   4,B   3)           60.0000         0.154165   
     55. A(B   1,B   5,B   4)           90.0000         0.154165   
     56. A(B   4,B   5,B   6)          120.0000         0.154165   
     57. A(B   1,B   5,B   6)           60.0000         0.154165   
     58. A(B   4,B   5,B   9)           60.0000         0.154165   
     59. A(B   6,B   5,B   9)           90.0000         0.154165   
     60. A(B   1,B   5,B   9)          120.0000         0.154165   
     61. A(B   1,B   6,B   7)           90.0000         0.154165   
     62. A(B   1,B   6,B   5)           60.0000         0.154165   
     63. A(B   1,B   6,B  11)          120.0000         0.154165   
     64. A(B   7,B   6,B  11)           60.0000         0.154165   
     65. A(B   5,B   6,B  11)           90.0000         0.154165   
     66. A(B   5,B   6,B   7)          120.0000         0.154165   
     67. A(B   6,B   7,B   8)          120.0000         0.154165   
     68. A(B   0,B   7,B   6)           90.0000         0.154165   
     69. A(B   6,B   7,B  11)           60.0000         0.154165   
     70. A(B   8,B   7,B  11)           90.0000         0.154165   
     71. A(B   0,B   7,B  11)          120.0000         0.154165   
     72. A(B   0,B   7,B   8)           60.0000         0.154165   
     73. A(B   0,B   8,B   3)           90.0000         0.154165   
     74. A(B   3,B   8,B   7)          120.0000         0.154165   
     75. A(B   0,B   8,B   7)           60.0000         0.154165   
     76. A(B   3,B   8,B  10)           60.0000         0.154165   
     77. A(B   0,B   8,B  10)          120.0000         0.154165   
     78. A(B   7,B   8,B  10)           90.0000         0.154165   
     79. A(B   4,B   9,B  11)          120.0000         0.154165   
     80. A(B  10,B   9,B  11)           60.0000         0.154165   
     81. A(B   5,B   9,B  11)           90.0000         0.154165   
     82. A(B   4,B   9,B  10)           90.0000         0.154165   
     83. A(B   4,B   9,B   5)           60.0000         0.154165   
     84. A(B   5,B   9,B  10)          120.0000         0.154165   
     85. A(B   3,B  10,B  11)          120.0000         0.154165   
     86. A(B   8,B  10,B  11)           90.0000         0.154165   
     87. A(B   3,B  10,B   9)           90.0000         0.154165   
     88. A(B   8,B  10,B   9)          120.0000         0.154165   
     89. A(B   3,B  10,B   8)           60.0000         0.154165   
     90. A(B   9,B  10,B  11)           60.0000         0.154165   
     91. A(B   7,B  11,B   9)          120.0000         0.154165   
     92. A(B   6,B  11,B  10)          120.0000         0.154165   
     93. A(B   6,B  11,B   9)           90.0000         0.154165   
     94. A(B   6,B  11,B   7)           60.0000         0.154165   
     95. A(B   9,B  11,B  10)           60.0000         0.154165   
     96. A(B   7,B  11,B  10)           90.0000         0.154165   
     97. D(B   6,B   1,B   0,B   2)    125.2644         0.010000   
     98. D(B   5,B   1,B   0,B   7)    -54.7356         0.010000   
     99. D(B   2,B   1,B   0,B   8)    -70.5288         0.010000   
    100. D(B   5,B   1,B   0,B   2)     70.5288         0.010000   
    101. D(B   5,B   1,B   0,B   8)      0.0000         0.010000   
    102. D(B   2,B   1,B   0,B   7)   -125.2644         0.010000   
    103. D(B   1,B   2,B   0,B   7)     70.5288         0.010000   
    104. D(B   3,B   2,B   1,B   0)     70.5288         0.010000   
    105. D(B   3,B   2,B   1,B   5)    -54.7356         0.010000   
    106. D(B   3,B   2,B   0,B   7)    -54.7356         0.010000   
    107. D(B   1,B   2,B   0,B   8)    125.2644         0.010000   
    108. D(B   0,B   2,B   1,B   6)    -70.5288         0.010000   
    109. D(B   3,B   2,B   0,B   1)   -125.2644         0.010000   
    110. D(B   4,B   2,B   0,B   1)    -70.5288         0.010000   
    111. D(B   4,B   2,B   1,B   0)    125.2644         0.010000   
    112. D(B   3,B   2,B   1,B   6)      0.0000         0.010000   
    113. D(B   3,B   2,B   0,B   8)      0.0000         0.010000   
    114. D(B   0,B   2,B   1,B   5)   -125.2644         0.010000   
    115. D(B  10,B   3,B   2,B   1)      0.0000         0.010000   
    116. D(B   4,B   3,B   2,B   0)    125.2644         0.010000   
    117. D(B   8,B   3,B   2,B   1)    -54.7356         0.010000   
    118. D(B   8,B   3,B   2,B   0)      0.0000         0.010000   
    119. D(B   4,B   3,B   2,B   1)     70.5288         0.010000   
    120. D(B   8,B   3,B   2,B   4)   -125.2644         0.010000   
    121. D(B   5,B   4,B   3,B   8)      0.0000         0.010000   
    122. D(B   3,B   4,B   2,B   0)    -70.5288         0.010000   
    123. D(B   5,B   4,B   2,B   3)    125.2644         0.010000   
    124. D(B   9,B   4,B   2,B   1)    -54.7356         0.010000   
    125. D(B   5,B   4,B   2,B   1)      0.0000         0.010000   
    126. D(B   3,B   4,B   2,B   1)   -125.2644         0.010000   
    127. D(B   5,B   4,B   2,B   0)     54.7356         0.010000   
    128. D(B   2,B   4,B   3,B   8)     70.5288         0.010000   
    129. D(B   5,B   4,B   3,B  10)     54.7356         0.010000   
    130. D(B   2,B   4,B   3,B  10)    125.2644         0.010000   
    131. D(B   5,B   4,B   3,B   2)    -70.5288         0.010000   
    132. D(B   9,B   4,B   3,B   8)    -54.7356         0.010000   
    133. D(B   6,B   5,B   4,B   9)     70.5288         0.010000   
    134. D(B   6,B   5,B   4,B   3)      0.0000         0.010000   
    135. D(B   1,B   5,B   4,B   2)      0.0000         0.010000   
    136. D(B   4,B   5,B   1,B   6)   -125.2644         0.010000   
    137. D(B   9,B   5,B   1,B   0)      0.0000         0.010000   
    138. D(B   4,B   5,B   1,B   2)      0.0000         0.010000   
    139. D(B   4,B   5,B   1,B   0)    -54.7356         0.010000   
    140. D(B   6,B   5,B   1,B   2)    125.2644         0.010000   
    141. D(B   1,B   5,B   4,B   9)    125.2644         0.010000   
    142. D(B   6,B   5,B   4,B   2)    -54.7356         0.010000   
    143. D(B   6,B   5,B   1,B   0)     70.5288         0.010000   
    144. D(B   1,B   5,B   4,B   3)     54.7356         0.010000   
    145. D(B  11,B   6,B   5,B   1)   -125.2644         0.010000   
    146. D(B   7,B   6,B   5,B   1)    -70.5288         0.010000   
    147. D(B   7,B   6,B   5,B   4)      0.0000         0.010000   
    148. D(B   1,B   6,B   5,B   4)     70.5288         0.010000   
    149. D(B  11,B   6,B   1,B   0)    -54.7356         0.010000   
    150. D(B   1,B   6,B   5,B   9)    125.2644         0.010000   
    151. D(B   7,B   6,B   1,B   5)    125.2644         0.010000   
    152. D(B   7,B   6,B   1,B   2)     54.7356         0.010000   
    153. D(B   7,B   6,B   5,B   9)     54.7356         0.010000   
    154. D(B   5,B   6,B   1,B   0)   -125.2644         0.010000   
    155. D(B   7,B   6,B   1,B   0)      0.0000         0.010000   
    156. D(B   5,B   6,B   1,B   2)    -70.5288         0.010000   
    157. D(B   6,B   7,B   0,B   1)      0.0000         0.010000   
    158. D(B   8,B   7,B   0,B   2)     70.5288         0.010000   
    159. D(B   8,B   7,B   0,B   1)    125.2644         0.010000   
    160. D(B   8,B   7,B   6,B  11)     70.5288         0.010000   
    161. D(B   0,B   7,B   6,B   5)     54.7356         0.010000   
    162. D(B   0,B   7,B   6,B  11)    125.2644         0.010000   
    163. D(B   0,B   7,B   6,B   1)      0.0000         0.010000   
    164. D(B   8,B   7,B   6,B   1)    -54.7356         0.010000   
    165. D(B  11,B   7,B   0,B   1)     54.7356         0.010000   
    166. D(B   6,B   7,B   0,B   8)   -125.2644         0.010000   
    167. D(B   6,B   7,B   0,B   2)    -54.7356         0.010000   
    168. D(B   8,B   7,B   6,B   5)      0.0000         0.010000   
    169. D(B  10,B   8,B   7,B   0)   -125.2644         0.010000   
    170. D(B   3,B   8,B   7,B  11)     54.7356         0.010000   
    171. D(B   3,B   8,B   7,B   6)      0.0000         0.010000   
    172. D(B   0,B   8,B   7,B  11)    125.2644         0.010000   
    173. D(B   0,B   8,B   7,B   6)     70.5288         0.010000   
    174. D(B   0,B   8,B   3,B  10)   -125.2644         0.010000   
    175. D(B   0,B   8,B   3,B   4)    -54.7356         0.010000   
    176. D(B   0,B   8,B   3,B   2)      0.0000         0.010000   
    177. D(B   7,B   8,B   3,B  10)    -70.5288         0.010000   
    178. D(B   7,B   8,B   3,B   4)      0.0000         0.010000   
    179. D(B   7,B   8,B   3,B   2)     54.7356         0.010000   
    180. D(B  10,B   8,B   0,B   1)      0.0000         0.010000   
    181. D(B   3,B   8,B   0,B   7)    125.2644         0.010000   
    182. D(B   3,B   8,B   7,B   0)    -70.5288         0.010000   
    183. D(B   3,B   8,B   0,B   2)      0.0000         0.010000   
    184. D(B   3,B   8,B   0,B   1)     54.7356         0.010000   
    185. D(B   7,B   8,B   0,B   2)   -125.2644         0.010000   
    186. D(B   7,B   8,B   0,B   1)    -70.5288         0.010000   
    187. D(B  11,B   9,B   5,B   1)     54.7356         0.010000   
    188. D(B   4,B   9,B   5,B   6)   -125.2644         0.010000   
    189. D(B   4,B   9,B   5,B   1)    -70.5288         0.010000   
    190. D(B  10,B   9,B   5,B   4)     70.5288         0.010000   
    191. D(B  10,B   9,B   5,B   6)    -54.7356         0.010000   
    192. D(B  10,B   9,B   5,B   1)      0.0000         0.010000   
    193. D(B  11,B   9,B   4,B   3)     54.7356         0.010000   
    194. D(B  10,B   9,B   4,B   2)    -54.7356         0.010000   
    195. D(B  10,B   9,B   4,B   5)   -125.2644         0.010000   
    196. D(B  10,B   9,B   4,B   3)      0.0000         0.010000   
    197. D(B   5,B   9,B   4,B   2)     70.5288         0.010000   
    198. D(B   5,B   9,B   4,B   3)    125.2644         0.010000   
    199. D(B   3,B  10,B   9,B  11)   -125.2644         0.010000   
    200. D(B   3,B  10,B   9,B   5)    -54.7356         0.010000   
    201. D(B   8,B  10,B   9,B  11)    -70.5288         0.010000   
    202. D(B   8,B  10,B   9,B   4)     54.7356         0.010000   
    203. D(B   8,B  10,B   9,B   5)      0.0000         0.010000   
    204. D(B  11,B  10,B   8,B   7)      0.0000         0.010000   
    205. D(B   9,B  10,B   8,B   3)    -70.5288         0.010000   
    206. D(B   9,B  10,B   8,B   0)      0.0000         0.010000   
    207. D(B   9,B  10,B   8,B   7)     54.7356         0.010000   
    208. D(B   3,B  10,B   8,B   0)     70.5288         0.010000   
    209. D(B   3,B  10,B   8,B   7)    125.2644         0.010000   
    210. D(B  11,B  10,B   3,B   8)     70.5288         0.010000   
    211. D(B   9,B  10,B   3,B   4)      0.0000         0.010000   
    212. D(B   9,B  10,B   3,B   2)     54.7356         0.010000   
    213. D(B   9,B  10,B   3,B   8)    125.2644         0.010000   
    214. D(B   3,B  10,B   9,B   4)      0.0000         0.010000   
    215. D(B   8,B  10,B   3,B   4)   -125.2644         0.010000   
    216. D(B   8,B  10,B   3,B   2)    -70.5288         0.010000   
    217. D(B  10,B  11,B   6,B   5)     54.7356         0.010000   
    218. D(B   9,B  11,B   6,B   1)    -54.7356         0.010000   
    219. D(B   9,B  11,B   6,B   7)   -125.2644         0.010000   
    220. D(B   9,B  11,B   6,B   5)      0.0000         0.010000   
    221. D(B   7,B  11,B   6,B   1)     70.5288         0.010000   
    222. D(B   9,B  11,B   7,B   0)      0.0000         0.010000   
    223. D(B   7,B  11,B   6,B   5)    125.2644         0.010000   
    224. D(B   6,B  11,B  10,B   8)     54.7356         0.010000   
    225. D(B   9,B  11,B  10,B   8)    125.2644         0.010000   
    226. D(B   7,B  11,B  10,B   9)   -125.2644         0.010000   
    227. D(B   7,B  11,B  10,B   3)    -54.7356         0.010000   
    228. D(B   6,B  11,B   9,B   5)      0.0000         0.010000   
    229. D(B  10,B  11,B   9,B   4)    -70.5288         0.010000   
    230. D(B  10,B  11,B   9,B   5)   -125.2644         0.010000   
    231. D(B   7,B  11,B   9,B   4)      0.0000         0.010000   
    232. D(B   7,B  11,B   9,B  10)     70.5288         0.010000   
    233. D(B   7,B  11,B   9,B   5)    -54.7356         0.010000   
    234. D(B   7,B  11,B  10,B   8)      0.0000         0.010000   
    235. D(B  10,B  11,B   7,B   6)    125.2644         0.010000   
    236. D(B  10,B  11,B   7,B   8)      0.0000         0.010000   
    237. D(B  10,B  11,B   7,B   0)     54.7356         0.010000   
    238. D(B   9,B  11,B  10,B   3)     70.5288         0.010000   
    239. D(B   9,B  11,B   7,B   6)     70.5288         0.010000   
    240. D(B   9,B  11,B   7,B   8)    -54.7356         0.010000   
    -----------------------------------------------------------------

Number of atoms                         .... 12
Number of degrees of freedom            .... 240


         *************************************************************
         *                GEOMETRY OPTIMIZATION CYCLE   1            *
         *************************************************************
---------------------------------
CARTESIAN COORDINATES (ANGSTROEM)
---------------------------------
  B      0.000000   -1.767767   -1.767767
  B     -1.767767    0.000000   -1.767767
  B     -1.767767   -1.767767    0.000000
  B      0.000000   -1.767767    1.767767
  B     -1.767767    0.000000    1.767767
  B     -1.767767    1.767767    0.000000
  B      0.000000    1.767767   -1.767767
  B      1.767767    0.000000   -1.767767
  B      1.767767   -1.767767    0.000000
  B      0.000000    1.767767    1.767767
  B      1.767767    0.000000    1.767767
  B      1.767767    1.767767    0.000000

----------------------------
CARTESIAN COORDINATES (A.U.)
----------------------------
  NO LB      ZA    FRAG     MASS         X           Y           Z
   0 B     5.0000    0    10.810    0.000000   -3.340595   -3.340595
   1 B     5.0000    0    10.810   -3.340595    0.000000   -3.340595
   2 B     5.0000    0    10.810   -3.340595   -3.340595    0.000000
   3 B     5.0000    0    10.810    0.000000   -3.340595    3.340595
   4 B     5.0000    0    10.810   -3.340595    0.000000    3.340595
   5 B     5.0000    0    10.810   -3.340595    3.340595    0.000000
   6 B     5.0000    0    10.810    0.000000    3.340595   -3.340595
   7 B     5.0000    0    10.810    3.340595    0.000000   -3.340595
   8 B     5.0000    0    10.810    3.340595   -3.340595    0.000000
   9 B     5.0000    0    10.810    0.000000    3.340595    3.340595
  10 B     5.0000    0    10.810    3.340595    0.000000    3.340595
  11 B     5.0000    0    10.810    3.340595    3.340595    0.000000

--------------------------------
INTERNAL COORDINATES (ANGSTROEM)
--------------------------------
 B      0   0   0     0.000000000000     0.00000000     0.00000000
 B      1   0   0     2.499999995805     0.00000000     0.00000000
 B      1   2   0     2.499999995805    60.00000000     0.00000000
 B      3   1   2     2.499999995805    90.00000000   234.73561032
 B      3   1   2     2.499999995805   120.00000000   289.47122063
 B      2   1   3     2.499999995805   120.00000000    70.52877937
 B      2   1   3     2.499999995805    90.00000000   125.26438968
 B      1   2   3     2.499999995805    90.00000000   234.73561032
 B      1   2   3     2.499999995805   120.00000000   289.47122063
 B      5   3   1     2.499999995805   120.00000000     0.00000000
 B      4   3   1     2.499999995805   120.00000000    54.73561032
 B      7   2   1     2.499999995805   120.00000000   305.26438968

---------------------------
INTERNAL COORDINATES (A.U.)
---------------------------
 B      0   0   0     0.000000000000     0.00000000     0.00000000
 B      1   0   0     4.724315326876     0.00000000     0.00000000
 B      1   2   0     4.724315326876    60.00000000     0.00000000
 B      3   1   2     4.724315326876    90.00000000   234.73561032
 B      3   1   2     4.724315326876   120.00000000   289.47122063
 B      2   1   3     4.724315326876   120.00000000    70.52877937
 B      2   1   3     4.724315326876    90.00000000   125.26438968
 B      1   2   3     4.724315326876    90.00000000   234.73561032
 B      1   2   3     4.724315326876   120.00000000   289.47122063
 B      5   3   1     4.724315326876   120.00000000     0.00000000
 B      4   3   1     4.724315326876   120.00000000    54.73561032
 B      7   2   1     4.724315326876   120.00000000   305.26438968

---------------------
BASIS SET INFORMATION
---------------------
There are 1 groups of distinct atoms

 Group   1 Type B   : 7s4p1d contracted to 3s2p1d pattern {511/31/1}

Atom   0B    basis set group =>   1
Atom   1B    basis set group =>   1
Atom   2B    basis set group =>   1
Atom   3B    basis set group =>   1
Atom   4B    basis set group =>   1
Atom   5B    basis set group =>   1
Atom   6B    basis set group =>   1
Atom   7B    basis set group =>   1
Atom   8B    basis set group =>   1
Atom   9B    basis set group =>   1
Atom  10B    basis set group =>   1
Atom  11B    basis set group =>   1
---------------------------------
AUXILIARY/J BASIS SET INFORMATION
---------------------------------
There are 1 groups of distinct atoms

 Group   1 Type B   : 12s5p4d2f1g contracted to 6s4p3d1f1g pattern {711111/2111/211/2/1}

Atom   0B    basis set group =>   1
Atom   1B    basis set group =>   1
Atom   2B    basis set group =>   1
Atom   3B    basis set group =>   1
Atom   4B    basis set group =>   1
Atom   5B    basis set group =>   1
Atom   6B    basis set group =>   1
Atom   7B    basis set group =>   1
Atom   8B    basis set group =>   1
Atom   9B    basis set group =>   1
Atom  10B    basis set group =>   1
Atom  11B    basis set group =>   1


           ************************************************************
           *        Program running with 8 parallel MPI-processes     *
           *              working on a common directory               *
           ************************************************************
------------------------------------------------------------------------------
                             ORCA STARTUP CALCULATIONS
                           -- RI-GTO INTEGRALS CHOSEN --
------------------------------------------------------------------------------
------------------------------------------------------------------------------
                   ___                                                        
                  /   \      - P O W E R E D   B Y -                         
                 /     \                                                     
                 |  |  |   _    _      __       _____    __    __             
                 |  |  |  | |  | |    /  \     |  _  \  |  |  /  |          
                  \  \/   | |  | |   /    \    | | | |  |  | /  /          
                 / \  \   | |__| |  /  /\  \   | |_| |  |  |/  /          
                |  |  |   |  __  | /  /__\  \  |    /   |      \           
                |  |  |   | |  | | |   __   |  |    \   |  |\   \          
                \     /   | |  | | |  |  |  |  | |\  \  |  | \   \       
                 \___/    |_|  |_| |__|  |__|  |_| \__\ |__|  \__/        
                                                                              
                      - O R C A' S   B I G   F R I E N D -                    
                                      &                                       
                       - I N T E G R A L  F E E D E R -                       
                                                                              
 v1 FN, 2020, v2 2021, v3 2022-2024                                           
------------------------------------------------------------------------------


----------------------
SHARK INTEGRAL PACKAGE
----------------------

Number of atoms                             ...     12
Number of basis functions                   ...    168
Number of shells                            ...     72
Maximum angular momentum                    ...      2
Integral batch strategy                     ... SHARK/LIBINT Hybrid
RI-J (if used) integral strategy            ... SPLIT-RIJ (Revised 2003 algorithm where possible)
Printlevel                                  ...      1
Contraction scheme used                     ... SEGMENTED contraction
Prescreening option                         ... SCHWARTZ
   Thresh                                   ... 2.500e-11
   Tcut                                     ... 2.500e-12
   Tpresel                                  ... 2.500e-12 
Coulomb Range Separation                    ... NOT USED
Exchange Range Separation                   ... NOT USED
Multipole approximations                    ... NOT USED
Finite Nucleus Model                        ... NOT USED
CABS basis                                  ... NOT available
Auxiliary Coulomb fitting basis             ... AVAILABLE
   # of basis functions in Aux-J            ...    588
   # of shells in Aux-J                     ...    180
   Maximum angular momentum in Aux-J        ...      4
Auxiliary J/K fitting basis                 ... NOT available
Auxiliary Correlation fitting basis         ... NOT available
Auxiliary 'external' fitting basis          ... NOT available

Checking pre-screening integrals            ... done (  0.0 sec) Dimension = 72
   => SHARK Basis and OBASIS are compatible. Storing Pre-screening
Shell pair information
Shell pair cut-off parameter TPreSel        ...   2.5e-12
Total number of shell pairs                 ...      2628
Shell pairs after pre-screening             ...      2550
Total number of primitive shell pairs       ...     10596
Primitive shell pairs kept                  ...      7302
          la=0 lb=0:    600 shell pairs
          la=1 lb=0:    864 shell pairs
          la=1 lb=1:    300 shell pairs
          la=2 lb=0:    420 shell pairs
          la=2 lb=1:    288 shell pairs
          la=2 lb=2:     78 shell pairs

Checking whether 4 symmetric matrices of dimension 168 fit in memory
:Max Core in MB      =   2500.00
 MB in use           =      6.77
 MB left             =   2493.23
 MB needed           =      0.43
 Data fit in memory  = YES
Calculating RI/J V-Matrix + Cholesky decomp.... done (  0.0 sec)
Calculating Nuclear repulsion               ... done (  0.0 sec) ENN=    261.104966650383 Eh

Diagonalization of the overlap matrix:
Smallest eigenvalue                        ... 2.638e-03
Time for diagonalization                   ...    0.003 sec
Threshold for overlap eigenvalues          ... 1.000e-07
Number of eigenvalues below threshold      ... 0
Time for construction of square roots      ...    0.002 sec
Total time needed                          ...    0.008 sec

-------------------
DFT GRID GENERATION
-------------------

General Integration Accuracy     IntAcc      ... 4.388
Radial Grid Type                 RadialGrid  ... OptM3 with GC (2021)
Angular Grid (max. ang.)         AngularGrid ... 4 (Lebedev-302)
Angular grid pruning method      GridPruning ... 4 (adaptive)
Weight generation scheme         WeightScheme... mBecke (2022)
Basis function cutoff            BFCut       ... 1.0000e-11
Integration weight cutoff        WCut        ... 1.0000e-14
Partially contracted basis set               ... off
Rotationally invariant grid construction     ... off
Angular grids for H and He will be reduced by one unit

Total number of grid points                  ...    72360
Total number of batches                      ...     1135
Average number of points per batch           ...       63
Average number of grid points per atom       ...     6030
Grids setup in   0.8 sec
Initializing property integral containers    ... done (  0.0 sec)

SHARK setup successfully completed in   1.0 seconds

Maximum memory used throughout the entire STARTUP-calculation: 19.9 MB


           ************************************************************
           *        Program running with 8 parallel MPI-processes     *
           *              working on a common directory               *
           ************************************************************
-------------------------------------------------------------------------------
                                 ORCA GUESS
                   Start orbitals & Density for SCF / CASSCF
-------------------------------------------------------------------------------

------------
SCF SETTINGS
------------
Hamiltonian:
 Density Functional     Method          .... DFT(GTOs)
 Exchange Functional    Exchange        .... B88
   X-Alpha parameter    XAlpha          ....  0.666667
   Becke's b parameter  XBeta           ....  0.004200
 Correlation Functional Correlation     .... P86
 LDA part of GGA corr.  LDAOpt          .... PW91-LDA
 Gradients option       PostSCFGGA      .... off
   NL short-range parameter             ....  4.400000
 RI-approximation to the Coulomb term is turned on
   Number of AuxJ basis functions       .... 588


General Settings:
 Integral files         IntName         .... cuboctahedron_nn2.50
 Hartree-Fock type      HFTyp           .... RHF
 Total Charge           Charge          ....    0
 Multiplicity           Mult            ....    1
 Number of Electrons    NEL             ....   60
 Basis Dimension        Dim             ....  168
 Nuclear Repulsion      ENuc            ....    261.1049666504 Eh

Convergence Acceleration:
 AO-DIIS                CNVDIIS         .... on
   Start iteration      DIISMaxIt       ....     0
   Startup error        DIISStart       ....  0.200000
   # of expansion vecs  DIISMaxEq       ....     5
   Bias factor          DIISBfac        ....   1.050
   Max. coefficient     DIISMaxC        ....  10.000
 MO-DIIS                CNVKDIIS        .... off
 Trust-Rad. Augm. Hess. CNVTRAH         .... auto
   Auto Start mean grad. ratio tolernc. ....  1.125000
   Auto Start start iteration           ....    50
   Auto Start num. interpolation iter.  ....    10
   Max. Number of Micro iterations      ....    24
   Max. Number of Macro iterations      .... Maxiter - #DIIS iter
   Number of Davidson start vectors     ....     2
   Converg. threshold    (grad. norm)   ....   1.000e-05
   Grad. Scal. Fac. for Micro threshold ....   0.100
   Minimum threshold for Micro iter.    ....   1.000e-02
   NR start threshold (gradient norm)   ....   1.000e-04
   Initial trust radius                 ....   0.400
   Minimum AH scaling param. (alpha)    ....   1.000
   Maximum AH scaling param. (alpha)    .... 1000.000
   Quad. conv. algorithm                .... NR
   White noise on init. David. guess    .... on
   Maximum white noise                  ....   0.010
   Pseudo random numbers                .... off
   Inactive MOs                         .... canonical
   Orbital update algorithm             .... Taylor
   Preconditioner                       .... Diag
   Full preconditioner red. dimension   ....   250
 SOSCF                 CNVSOSCF           .... on
   Start iteration     SOSCFMaxIt         ....   150
   Startup grad/error  SOSCFStart         ....  0.001000
   Hessian update      SOSCFHessUp        .... L-BFGS
   Autom. constraints  SOSCFAutoConstrain .... off
 Level Shifting         CNVShift        .... on
   Level shift para.    LevelShift      ....    0.2500
   Turn off err/grad.   ShiftErr        ....    0.0000
 Zerner damping         CNVZerner       .... off
 Static damping         CNVDamp         .... on
   Fraction old density DampFac         ....    0.8500
   Max. Damping (<1)    DampMax         ....    0.9800
   Min. Damping (>=0)   DampMin         ....    0.0000
   Turn off err/grad.   DampErr         ....    0.0300

SCF Procedure:
 Maximum # iterations   MaxIter         ....   125
 SCF integral mode      SCFMode         .... Direct
   Integral package                     .... SHARK and LIBINT hybrid scheme
 Reset frequency        DirectResetFreq ....    20
 Integral Threshold     Thresh          ....  2.500e-11 Eh
 Primitive CutOff       TCut            ....  2.500e-12 Eh

Convergence Tolerance:
 Convergence Check Mode ConvCheckMode   .... Total+1el-Energy
 Convergence forced     ConvForced      .... 0
 Energy Change          TolE            ....  1.000e-08 Eh
 1-El. energy change                    ....  1.000e-05 Eh
 Orbital Gradient       TolG            ....  1.000e-05
 Orbital Rotation angle TolX            ....  1.000e-05
 DIIS Error             TolErr          ....  5.000e-07

------------------------------
INITIAL GUESS: MODEL POTENTIAL
------------------------------
Loading Hartree-Fock densities                     ... done
Calculating cut-offs                               ... done
Initializing the effective Hamiltonian             ... done
Setting up the integral package (SHARK)            ... done
Starting the Coulomb interaction                   ... done (   0.0 sec)
Making the grid                                    ... done (   0.2 sec)
Mapping shells                                     ... done
Starting the XC term evaluation                    ... done (   0.0 sec)
  promolecular density results
     # of electrons  =     60.002431728
     EX              =    -44.544263267
     EC              =     -1.795756329
     EX+EC           =    -46.340019596
Transforming the Hamiltonian                       ... done (   0.0 sec)
Diagonalizing the Hamiltonian                      ... done (   0.0 sec)
Back transforming the eigenvectors                 ... done (   0.0 sec)
Now organizing SCF variables                       ... done
                      ------------------
                      INITIAL GUESS DONE (   0.3 sec)
                      ------------------
             **** ENERGY FILE WAS UPDATED (cuboctahedron_nn2.50.en.tmp) ****
Finished Guess after   0.8 sec
Maximum memory used throughout the entire GUESS-calculation: 9.6 MB


           ************************************************************
           *        Program running with 8 parallel MPI-processes     *
           *              working on a common directory               *
           ************************************************************

-------------------------------------------------------------------------------------------
                                      ORCA LEAN-SCF
                              memory conserving SCF solver
-------------------------------------------------------------------------------------------

----------------------------------------D-I-I-S--------------------------------------------
Iteration    Energy (Eh)           Delta-E    RMSDP     MaxDP     DIISErr   Damp  Time(sec)
-------------------------------------------------------------------------------------------
               ***  Starting incremental Fock matrix formation  ***
    1    -296.3767237033459878     0.00e+00  2.49e-03  1.84e-02  2.27e-02  0.850   0.3
Warning: op=0 Small HOMO/LUMO gap (  -0.037) - skipping pre-diagonalization
         Will do a full diagonalization
    2    -296.3877559009101788    -1.10e-02  3.00e-03  1.94e-02  1.72e-02  0.850   0.3
                               ***Turning on AO-DIIS***
    3    -296.3952520193164446    -7.50e-03  1.83e-03  9.74e-03  1.03e-02  0.850   0.4
    4    -296.3982551744039711    -3.00e-03  8.35e-03  5.23e-02  6.03e-03  0.000   0.4
    5    -296.3970075812629830     1.25e-03  1.84e-03  7.89e-03  1.52e-02  0.000   0.3
    6    -296.4050476117824928    -8.04e-03  1.28e-03  6.85e-03  8.91e-03  0.000   0.3
    7    -296.4080194040953984    -2.97e-03  8.12e-04  3.65e-03  5.51e-03  0.000   0.3
    8    -296.4092337147527587    -1.21e-03  5.15e-04  2.64e-03  2.96e-03  0.000   0.3
    9    -296.4096500464801238    -4.16e-04  4.06e-04  2.06e-03  1.88e-03  0.000   0.3
   10    -296.4098644331696732    -2.14e-04  3.14e-04  1.48e-03  1.08e-03  0.000   0.3
                              *** Initializing SOSCF ***
---------------------------------------S-O-S-C-F--------------------------------------
Iteration    Energy (Eh)           Delta-E    RMSDP     MaxDP     MaxGrad    Time(sec)
--------------------------------------------------------------------------------------
   11    -296.4099783792322569    -1.14e-04  2.76e-04  1.69e-03  7.91e-04     0.4
               *** Restarting incremental Fock matrix formation ***
   12    -296.4100610684718049    -8.27e-05  5.90e-04  1.92e-03  1.63e-03     0.3
   13    -296.4101981274876607    -1.37e-04  3.79e-03  1.14e-02  1.99e-03     0.2
               *** Scaled step length from 0.640138 to 0.200000 ***
   14    -296.4110434581054960    -8.45e-04  5.86e-03  1.84e-02  1.90e-03     0.3
   15    -296.4118309407707557    -7.87e-04  2.56e-03  7.53e-03  2.50e-03     0.3
   16    -296.4120913954659500    -2.60e-04  1.67e-03  8.58e-03  1.76e-03     0.3
   17    -296.4122869621053269    -1.96e-04  8.89e-04  2.51e-03  9.63e-04     0.3
   18    -296.4123221343465957    -3.52e-05  5.23e-04  1.47e-03  4.25e-04     0.3
   19    -296.4123357920757371    -1.37e-05  1.45e-04  1.00e-03  2.42e-04     0.3
   20    -296.4123359497043566    -1.58e-07  1.45e-04  5.91e-04  3.99e-04     0.5
   21    -296.4123339329566988     2.02e-06  1.50e-04  1.03e-03  4.72e-04     0.4
   22    -296.4123388100742886    -4.88e-06  5.98e-05  5.86e-04  1.27e-04     0.3
   23    -296.4123395016882796    -6.92e-07  3.77e-05  2.94e-04  8.64e-05     0.3
   24    -296.4123397574624050    -2.56e-07  2.07e-05  1.06e-04  4.88e-05     0.3
   25    -296.4123398362198714    -7.88e-08  2.03e-05  1.32e-04  4.81e-05     0.3
   26    -296.4123397890791693     4.71e-08  1.52e-05  7.92e-05  6.58e-05     0.2
   27    -296.4123399183499714    -1.29e-07  8.40e-06  4.39e-05  9.79e-06     0.2
   28    -296.4123399058980795     1.25e-08  8.12e-06  3.13e-05  4.28e-05     0.2
   29    -296.4123399333917632    -2.75e-08  6.91e-06  7.65e-05  8.39e-06     0.3
   30    -296.4123399293889634     4.00e-09  4.55e-06  3.81e-05  1.84e-05     0.3
                 **** Energy Check signals convergence ****

               *****************************************************
               *                     SUCCESS                       *
               *           SCF CONVERGED AFTER  30 CYCLES          *
               *****************************************************

             **** ENERGY FILE WAS UPDATED (cuboctahedron_nn2.50.en.tmp) ****

----------------
TOTAL SCF ENERGY
----------------

Total Energy       :       -296.41233994575850 Eh           -8065.78983 eV

Components:
Nuclear Repulsion  :        261.10496665038261 Eh            7105.02736 eV
Electronic Energy  :       -557.51730659614111 Eh          -15170.81718 eV
One Electron Energy:       -909.77706090110291 Eh          -24756.29241 eV
Two Electron Energy:        352.25975430496180 Eh            9585.47523 eV

Virial components:
Potential Energy   :       -587.09646701677195 Eh          -15975.70706 eV
Kinetic Energy     :        290.68412707101345 Eh            7909.91723 eV
Virial Ratio       :          2.01970597064402

DFT components:
N(Alpha)           :       29.999982419764 electrons
N(Beta)            :       29.999982419764 electrons
N(Total)           :       59.999964839528 electrons
E(X)               :      -44.594100839308 Eh       
E(C)               :       -1.830366101414 Eh       
E(XC)              :      -46.424466940722 Eh       

---------------
SCF CONVERGENCE
---------------

  Last Energy change         ...   -4.0028e-09  Tolerance :   1.0000e-08
  Last MAX-Density change    ...    3.8132e-05  Tolerance :   1.0000e-07
  Last RMS-Density change    ...    4.5544e-06  Tolerance :   5.0000e-09
  Last DIIS Error            ...    7.9070e-04  Tolerance :   5.0000e-07
  Last Orbital Gradient      ...    1.8407e-05  Tolerance :   1.0000e-05
  Last Orbital Rotation      ...    9.2095e-05  Tolerance :   1.0000e-05


----------------
ORBITAL ENERGIES
----------------

  NO   OCC          E(Eh)            E(eV) 
   0   2.0000      -6.676271      -181.6706 
   1   2.0000      -6.676243      -181.6698 
   2   2.0000      -6.676241      -181.6698 
   3   2.0000      -6.676143      -181.6671 
   4   2.0000      -6.664709      -181.3559 
   5   2.0000      -6.664645      -181.3542 
   6   2.0000      -6.664639      -181.3540 
   7   2.0000      -6.664613      -181.3533 
   8   2.0000      -6.664610      -181.3533 
   9   2.0000      -6.664604      -181.3531 
  10   2.0000      -6.664513      -181.3506 
  11   2.0000      -6.664403      -181.3476 
  12   2.0000      -0.499620       -13.5953 
  13   2.0000      -0.447492       -12.1769 
  14   2.0000      -0.447490       -12.1768 
  15   2.0000      -0.442886       -12.0515 
  16   2.0000      -0.382752       -10.4152 
  17   2.0000      -0.376319       -10.2402 
  18   2.0000      -0.376317       -10.2401 
  19   2.0000      -0.331265        -9.0142 
  20   2.0000      -0.330920        -9.0048 
  21   2.0000      -0.287746        -7.8300 
  22   2.0000      -0.287745        -7.8300 
  23   2.0000      -0.283956        -7.7268 
  24   2.0000      -0.270287        -7.3549 
  25   2.0000      -0.236133        -6.4255 
  26   2.0000      -0.218861        -5.9555 
  27   2.0000      -0.218861        -5.9555 
  28   2.0000      -0.217084        -5.9071 
  29   2.0000      -0.186840        -5.0842 
  30   0.0000      -0.191331        -5.2064 
  31   0.0000      -0.191330        -5.2064 
  32   0.0000      -0.182694        -4.9714 
  33   0.0000      -0.179311        -4.8793 
  34   0.0000      -0.179311        -4.8793 
  35   0.0000      -0.171663        -4.6712 
  36   0.0000      -0.169290        -4.6066 
  37   0.0000      -0.150439        -4.0936 
  38   0.0000      -0.143632        -3.9084 
  39   0.0000      -0.143631        -3.9084 
  40   0.0000      -0.092926        -2.5286 
*Only the first 10 virtual orbitals were printed.

                    ********************************
                    * MULLIKEN POPULATION ANALYSIS *
                    ********************************

-----------------------
MULLIKEN ATOMIC CHARGES
-----------------------
   0 B :   -0.016974
   1 B :    0.033869
   2 B :   -0.016982
   3 B :   -0.016907
   4 B :    0.033869
   5 B :   -0.016915
   6 B :   -0.016888
   7 B :    0.033887
   8 B :   -0.016911
   9 B :   -0.016970
  10 B :    0.033875
  11 B :   -0.016954
Sum of atomic charges:   -0.0000000

--------------------------------
MULLIKEN REDUCED ORBITAL CHARGES
--------------------------------
  0 B s       :     3.690118  s :     3.690118
      pz      :     0.416719  p :     1.315590
      px      :     0.419147
      py      :     0.479724
      dz2     :     0.002145  d :     0.011266
      dxz     :     0.002896
      dyz     :     0.000978
      dx2y2   :     0.002218
      dxy     :     0.003029

  1 B s       :     3.714547  s :     3.714547
      pz      :     0.379091  p :     1.239524
      px      :     0.379090
      py      :     0.481343
      dz2     :     0.002078  d :     0.012060
      dxz     :     0.000685
      dyz     :     0.003584
      dx2y2   :     0.002129
      dxy     :     0.003584

  2 B s       :     3.690119  s :     3.690119
      pz      :     0.419145  p :     1.315597
      px      :     0.416726
      py      :     0.479726
      dz2     :     0.002116  d :     0.011266
      dxz     :     0.002896
      dyz     :     0.003029
      dx2y2   :     0.002247
      dxy     :     0.000978

  3 B s       :     3.690156  s :     3.690156
      pz      :     0.416662  p :     1.315485
      px      :     0.419217
      py      :     0.479606
      dz2     :     0.002145  d :     0.011266
      dxz     :     0.002896
      dyz     :     0.000977
      dx2y2   :     0.002218
      dxy     :     0.003030

  4 B s       :     3.714545  s :     3.714545
      pz      :     0.379089  p :     1.239526
      px      :     0.379089
      py      :     0.481348
      dz2     :     0.002078  d :     0.012059
      dxz     :     0.000685
      dyz     :     0.003583
      dx2y2   :     0.002129
      dxy     :     0.003583

  5 B s       :     3.690158  s :     3.690158
      pz      :     0.419222  p :     1.315491
      px      :     0.416659
      py      :     0.479610
      dz2     :     0.002116  d :     0.011266
      dxz     :     0.002896
      dyz     :     0.003030
      dx2y2   :     0.002247
      dxy     :     0.000977

  6 B s       :     3.690152  s :     3.690152
      pz      :     0.416656  p :     1.315469
      px      :     0.419213
      py      :     0.479600
      dz2     :     0.002145  d :     0.011266
      dxz     :     0.002896
      dyz     :     0.000977
      dx2y2   :     0.002218
      dxy     :     0.003030

  7 B s       :     3.714543  s :     3.714543
      pz      :     0.379085  p :     1.239511
      px      :     0.379084
      py      :     0.481343
      dz2     :     0.002078  d :     0.012059
      dxz     :     0.000685
      dyz     :     0.003583
      dx2y2   :     0.002129
      dxy     :     0.003583

  8 B s       :     3.690158  s :     3.690158
      pz      :     0.419223  p :     1.315487
      px      :     0.416657
      py      :     0.479608
      dz2     :     0.002116  d :     0.011266
      dxz     :     0.002896
      dyz     :     0.003030
      dx2y2   :     0.002247
      dxy     :     0.000977

  9 B s       :     3.690118  s :     3.690118
      pz      :     0.416718  p :     1.315587
      px      :     0.419145
      py      :     0.479723
      dz2     :     0.002145  d :     0.011266
      dxz     :     0.002896
      dyz     :     0.000978
      dx2y2   :     0.002218
      dxy     :     0.003029

 10 B s       :     3.714546  s :     3.714546
      pz      :     0.379091  p :     1.239519
      px      :     0.379087
      py      :     0.481341
      dz2     :     0.002078  d :     0.012060
      dxz     :     0.000685
      dyz     :     0.003584
      dx2y2   :     0.002129
      dxy     :     0.003584

 11 B s       :     3.690114  s :     3.690114
      pz      :     0.419139  p :     1.315574
      px      :     0.416717
      py      :     0.479717
      dz2     :     0.002116  d :     0.011266
      dxz     :     0.002896
      dyz     :     0.003029
      dx2y2   :     0.002247
      dxy     :     0.000978



                     *******************************
                     * LOEWDIN POPULATION ANALYSIS *
                     *******************************

----------------------
LOEWDIN ATOMIC CHARGES
----------------------
   0 B :   -0.022397
   1 B :    0.044675
   2 B :   -0.022405
   3 B :   -0.022289
   4 B :    0.044673
   5 B :   -0.022295
   6 B :   -0.022270
   7 B :    0.044689
   8 B :   -0.022291
   9 B :   -0.022393
  10 B :    0.044681
  11 B :   -0.022379

-------------------------------
LOEWDIN REDUCED ORBITAL CHARGES
-------------------------------
  0 B s       :     3.421253  s :     3.421253
      pz      :     0.494752  p :     1.580490
      px      :     0.526505
      py      :     0.559233
      dz2     :     0.003922  d :     0.020653
      dxz     :     0.006094
      dyz     :     0.001108
      dx2y2   :     0.003208
      dxy     :     0.006321

  1 B s       :     3.444556  s :     3.444556
      pz      :     0.454316  p :     1.488809
      px      :     0.454314
      py      :     0.580179
      dz2     :     0.003729  d :     0.021959
      dxz     :     0.000717
      dyz     :     0.007215
      dx2y2   :     0.003084
      dxy     :     0.007215

  2 B s       :     3.421253  s :     3.421253
      pz      :     0.526505  p :     1.580499
      px      :     0.494758
      py      :     0.559236
      dz2     :     0.002721  d :     0.020654
      dxz     :     0.006094
      dyz     :     0.006322
      dx2y2   :     0.004409
      dxy     :     0.001108

  3 B s       :     3.421289  s :     3.421289
      pz      :     0.494686  p :     1.580346
      px      :     0.526561
      py      :     0.559100
      dz2     :     0.003922  d :     0.020654
      dxz     :     0.006094
      dyz     :     0.001108
      dx2y2   :     0.003208
      dxy     :     0.006322

  4 B s       :     3.444558  s :     3.444558
      pz      :     0.454315  p :     1.488811
      px      :     0.454315
      py      :     0.580182
      dz2     :     0.003729  d :     0.021958
      dxz     :     0.000717
      dyz     :     0.007214
      dx2y2   :     0.003083
      dxy     :     0.007214

  5 B s       :     3.421292  s :     3.421292
      pz      :     0.526564  p :     1.580350
      px      :     0.494683
      py      :     0.559103
      dz2     :     0.002721  d :     0.020653
      dxz     :     0.006094
      dyz     :     0.006322
      dx2y2   :     0.004409
      dxy     :     0.001108

  6 B s       :     3.421286  s :     3.421286
      pz      :     0.494680  p :     1.580331
      px      :     0.526556
      py      :     0.559094
      dz2     :     0.003922  d :     0.020654
      dxz     :     0.006094
      dyz     :     0.001108
      dx2y2   :     0.003208
      dxy     :     0.006322

  7 B s       :     3.444556  s :     3.444556
      pz      :     0.454310  p :     1.488797
      px      :     0.454310
      py      :     0.580178
      dz2     :     0.003729  d :     0.021958
      dxz     :     0.000717
      dyz     :     0.007214
      dx2y2   :     0.003083
      dxy     :     0.007214

  8 B s       :     3.421292  s :     3.421292
      pz      :     0.526564  p :     1.580346
      px      :     0.494681
      py      :     0.559101
      dz2     :     0.002721  d :     0.020653
      dxz     :     0.006094
      dyz     :     0.006322
      dx2y2   :     0.004409
      dxy     :     0.001108

  9 B s       :     3.421252  s :     3.421252
      pz      :     0.494752  p :     1.580488
      px      :     0.526504
      py      :     0.559232
      dz2     :     0.003922  d :     0.020653
      dxz     :     0.006094
      dyz     :     0.001108
      dx2y2   :     0.003208
      dxy     :     0.006321

 10 B s       :     3.444556  s :     3.444556
      pz      :     0.454315  p :     1.488804
      px      :     0.454312
      py      :     0.580178
      dz2     :     0.003729  d :     0.021959
      dxz     :     0.000717
      dyz     :     0.007215
      dx2y2   :     0.003084
      dxy     :     0.007215

 11 B s       :     3.421249  s :     3.421249
      pz      :     0.526499  p :     1.580477
      px      :     0.494750
      py      :     0.559228
      dz2     :     0.002721  d :     0.020653
      dxz     :     0.006094
      dyz     :     0.006321
      dx2y2   :     0.004409
      dxy     :     0.001108



                      *****************************
                      * MAYER POPULATION ANALYSIS *
                      *****************************

  NA   - Mulliken gross atomic population
  ZA   - Total nuclear charge
  QA   - Mulliken gross atomic charge
  VA   - Mayer's total valence
  BVA  - Mayer's bonded valence
  FA   - Mayer's free valence

  ATOM       NA         ZA         QA         VA         BVA        FA
  0 B      5.0170     5.0000    -0.0170     2.4796     2.4796    -0.0000
  1 B      4.9661     5.0000     0.0339     2.3306     2.3306    -0.0000
  2 B      5.0170     5.0000    -0.0170     2.4796     2.4796    -0.0000
  3 B      5.0169     5.0000    -0.0169     2.4795     2.4795    -0.0000
  4 B      4.9661     5.0000     0.0339     2.3306     2.3306    -0.0000
  5 B      5.0169     5.0000    -0.0169     2.4795     2.4795    -0.0000
  6 B      5.0169     5.0000    -0.0169     2.4794     2.4794    -0.0000
  7 B      4.9661     5.0000     0.0339     2.3306     2.3306    -0.0000
  8 B      5.0169     5.0000    -0.0169     2.4795     2.4795    -0.0000
  9 B      5.0170     5.0000    -0.0170     2.4796     2.4796    -0.0000
 10 B      4.9661     5.0000     0.0339     2.3306     2.3306    -0.0000
 11 B      5.0170     5.0000    -0.0170     2.4796     2.4796    -0.0000

  Mayer bond orders larger than 0.100000
B(  0-B ,  1-B ) :   0.3688 B(  0-B ,  2-B ) :   0.4724 B(  0-B ,  3-B ) :   0.1888 
B(  0-B ,  4-B ) :   0.1281 B(  0-B ,  7-B ) :   0.3687 B(  0-B ,  8-B ) :   0.4723 
B(  0-B ,  9-B ) :   0.1706 B(  0-B , 10-B ) :   0.1280 B(  1-B ,  2-B ) :   0.3688 
B(  1-B ,  3-B ) :   0.1282 B(  1-B ,  5-B ) :   0.3687 B(  1-B ,  6-B ) :   0.3687 
B(  1-B ,  8-B ) :   0.1282 B(  1-B ,  9-B ) :   0.1280 B(  1-B , 10-B ) :   0.1769 
B(  1-B , 11-B ) :   0.1280 B(  2-B ,  3-B ) :   0.4723 B(  2-B ,  4-B ) :   0.3687 
B(  2-B ,  7-B ) :   0.1281 B(  2-B ,  8-B ) :   0.1888 B(  2-B , 10-B ) :   0.1280 
B(  2-B , 11-B ) :   0.1706 B(  3-B ,  4-B ) :   0.3688 B(  3-B ,  6-B ) :   0.1705 
B(  3-B ,  7-B ) :   0.1281 B(  3-B ,  8-B ) :   0.4722 B(  3-B , 10-B ) :   0.3687 
B(  4-B ,  5-B ) :   0.3688 B(  4-B ,  6-B ) :   0.1281 B(  4-B ,  7-B ) :   0.1769 
B(  4-B ,  8-B ) :   0.1281 B(  4-B ,  9-B ) :   0.3687 B(  4-B , 11-B ) :   0.1281 
B(  5-B ,  6-B ) :   0.4722 B(  5-B ,  7-B ) :   0.1281 B(  5-B ,  8-B ) :   0.1705 
B(  5-B ,  9-B ) :   0.4723 B(  5-B , 10-B ) :   0.1282 B(  5-B , 11-B ) :   0.1888 
B(  6-B ,  7-B ) :   0.3688 B(  6-B ,  9-B ) :   0.1888 B(  6-B , 10-B ) :   0.1282 
B(  6-B , 11-B ) :   0.4723 B(  7-B ,  8-B ) :   0.3688 B(  7-B ,  9-B ) :   0.1281 
B(  7-B , 11-B ) :   0.3687 B(  8-B , 10-B ) :   0.3687 B(  9-B , 10-B ) :   0.3688 
B(  9-B , 11-B ) :   0.4724 B( 10-B , 11-B ) :   0.3688 

-------
TIMINGS
-------

Total SCF time: 0 days 0 hours 0 min 10 sec 

Total time                  ....      10.005 sec
Sum of individual times     ....       9.618 sec  ( 96.1%)

SCF preparation             ....       0.494 sec  (  4.9%)
Fock matrix formation       ....       7.842 sec  ( 78.4%)
  Startup                   ....       0.021 sec  (  0.3% of F)
  Split-RI-J                ....       2.594 sec  ( 33.1% of F)
  XC integration            ....       4.945 sec  ( 63.1% of F)
    XC Preparation          ....       0.000 sec  (  0.0% of XC)
    Basis function eval.    ....       1.268 sec  ( 25.6% of XC)
    Density eval.           ....       0.752 sec  ( 15.2% of XC)
    XC-Functional eval.     ....       0.179 sec  (  3.6% of XC)
    XC-Potential eval.      ....       0.830 sec  ( 16.8% of XC)
Diagonalization             ....       0.000 sec  (  0.0%)
Density matrix formation    ....       0.187 sec  (  1.9%)
Total Energy calculation    ....       0.103 sec  (  1.0%)
Population analysis         ....       0.049 sec  (  0.5%)
Orbital Transformation      ....       0.037 sec  (  0.4%)
Orbital Orthonormalization  ....       0.000 sec  (  0.0%)
DIIS solution               ....       0.405 sec  (  4.1%)
SOSCF solution              ....       0.501 sec  (  5.0%)
Finished LeanSCF after  10.0 sec

Maximum memory used throughout the entire LEANSCF-calculation: 10.0 MB


-------------------------------------------------------------------------------
                          DFT DISPERSION CORRECTION                            
                                                                               
                              DFTD3 V3.1  Rev 1                                
                          USING Becke-Johnson damping                          
-------------------------------------------------------------------------------
The BP86 functional is recognized
Active option DFTDOPT                   ...         4   

molecular C6(AA) [au] = 14870.194872 


            DFT-D V3
 parameters
 s6 scaling factor         :     1.0000 
 a1 scaling factor         :     0.3946 
 s8 scaling factor         :     3.2822 
 a2 scaling factor         :     4.8516 
 ad hoc parameters k1-k3   :    16.0000     1.3333    -4.0000 

 Edisp/kcal,au: -55.695307198582  -0.088756112154 
 E6   /kcal   : -16.284769121 
 E8   /kcal   : -39.410538077 
 % E8         :  70.760967233 

-------------------------   ----------------
Dispersion correction           -0.088756112
-------------------------   ----------------


-------------------------   --------------------
FINAL SINGLE POINT ENERGY      -296.501096057912
-------------------------   --------------------



           ************************************************************
           *        Program running with 8 parallel MPI-processes     *
           *              working on a common directory               *
           ************************************************************
------------------------------------------------------------------------------
                         ORCA SCF GRADIENT CALCULATION
------------------------------------------------------------------------------

Nuc. rep. gradient        (SHARK) ... done (  0.0 sec)
HCore & Overlap gradient  (SHARK) ... done (  0.0 sec)
Split-RIJ-J gradient      (SHARK) ... done (  0.4 sec)
XC gradient                       ... done (  0.9 sec)
Dispersion correction             ... done (  0.1 sec)

-------------------
DISPERSION GRADIENT
-------------------

   1   B   :    0.000000000   -0.001160317   -0.001160317
   2   B   :   -0.001160317    0.000000000   -0.001160317
   3   B   :   -0.001160317   -0.001160317    0.000000000
   4   B   :    0.000000000   -0.001160317    0.001160317
   5   B   :   -0.001160317    0.000000000    0.001160317
   6   B   :   -0.001160317    0.001160317    0.000000000
   7   B   :    0.000000000    0.001160317   -0.001160317
   8   B   :    0.001160317    0.000000000   -0.001160317
   9   B   :    0.001160317   -0.001160317    0.000000000
  10   B   :    0.000000000    0.001160317    0.001160317
  11   B   :    0.001160317    0.000000000    0.001160317
  12   B   :    0.001160317    0.001160317    0.000000000

Difference to translation invariance:
           :   -0.0000000000    0.0000000000   -0.0000000000

Difference to rotation invariance:
           :   -0.0000000000    0.0000000000    0.0000000000

Norm of the Dispersion gradient    ...    0.0056843686
RMS gradient                       ...    0.0009473948
MAX gradient                       ...    0.0011603169

------------------
CARTESIAN GRADIENT
------------------

   1   B   :    0.000009687   -0.032450819   -0.045452347
   2   B   :   -0.044698304    0.000019567   -0.044698533
   3   B   :   -0.045452364   -0.032451258    0.000009335
   4   B   :    0.000008919   -0.032452168    0.045454424
   5   B   :   -0.044698057    0.000000237    0.044698224
   6   B   :   -0.045454202    0.032452179   -0.000008850
   7   B   :   -0.000008392    0.032451594   -0.045453857
   8   B   :    0.044697569    0.000000373   -0.044697627
   9   B   :    0.045454367   -0.032451934    0.000008584
  10   B   :   -0.000009141    0.032450774    0.045452040
  11   B   :    0.044698261   -0.000018945    0.044698195
  12   B   :    0.045451657    0.032450400   -0.000009589

Difference to translation invariance:
           :   -0.0000000000   -0.0000000000    0.0000000000

Difference to rotation invariance:
           :    0.0000018862    0.0000001164   -0.0000004862

Norm of the Cartesian gradient     ...    0.2023265130
RMS gradient                       ...    0.0337210855
MAX gradient                       ...    0.0454544242

-------
TIMINGS
-------

Total SCF gradient time     ....        1.432 sec

Densities                   ....       0.001 sec  (  0.1%)
One electron gradient       ....       0.047 sec  (  3.3%)
RI-J Coulomb gradient       ....       0.383 sec  ( 26.7%)
XC gradient                 ....       0.911 sec  ( 63.6%)

Maximum memory used throughout the entire SCFGRAD-calculation: 29.6 MB
------------------------------------------------------------------------------
                         ORCA GEOMETRY RELAXATION STEP
------------------------------------------------------------------------------

Reading the OPT-File                    .... done
Getting information on internals        .... done
Copying old internal coords+grads       .... done
Making the new internal coordinates     .... (2022 redundants) done
Validating the new internal coordinates .... (2022 redundants) done
Calculating the B-matrix                .... done
Calculating the G,G- and P matrices     .... done
Transforming gradient to internals      .... done
Projecting the internal gradient        .... done
Number of atoms                         ....  12
Number of internal coordinates          .... 240
Current Energy                          ....  -296.501096058 Eh
Current gradient norm                   ....     0.202326513 Eh/bohr
Maximum allowed component of the step   ....  0.300
Current trust radius                    ....  0.300
Evaluating the initial hessian          ....  (Almloef) done
Projecting the Hessian                  .... done
Forming the augmented Hessian           .... done
Diagonalizing the augmented Hessian     .... done
Last element of RFO vector              ....  0.725370224
Lowest eigenvalues of augmented Hessian:
 -0.136445282  0.014204936  0.017541421  0.020071201  0.020095277
Length of the computed step             ....  0.948976017
Warning: the length of the step is outside the trust region - taking restricted step instead
The input lambda is                     ....     0.013205
   iter:   5  x=    0.006609  g=308843.303788 f(x)=   782.186370
   iter:  10  x=   -0.043459  g=  706.632898 f(x)=    13.554703
   iter:  15  x=   -0.345232  g=    2.141585 f(x)=     0.197240
   iter:  20  x=   -0.464198  g=    0.375347 f(x)=     0.000000
The output lambda is                    ....    -0.464198 (21 iterations)
The final length of the internal step   ....  0.300000000
Converting the step to Cartesian space:
 Initial RMS(Int)=    0.0193649167
Transforming coordinates:
 Iter   0:  RMS(Cart)=    0.0356443314 RMS(Int)=    0.0193649255
done
Storing new coordinates                 .... done

                                .--------------------.
          ----------------------|Geometry convergence|-------------------------
          Item                value                   Tolerance       Converged
          ---------------------------------------------------------------------
          RMS gradient        0.0092906678            0.0001000000      NO
          MAX gradient        0.0331413553            0.0003000000      NO
          RMS step            0.0193649167            0.0020000000      NO
          MAX step            0.0688204262            0.0040000000      NO
          -------------------------------------------------------------------------
          ........................................................
          Max(Bonds)      0.0364      Max(Angles)    0.37
          Max(Dihed)        0.35      Max(Improp)    0.00
          ---------------------------------------------------------------------

The optimization has not yet converged - more geometry cycles are needed


    ---------------------------------------------------------------------------
                         Redundant Internal Coordinates
                            (Angstroem and degrees)

        Definition                    Value    dE/dq     Step     New-Value
    ----------------------------------------------------------------------------
     1. B(B   1,B   0)                2.5000  0.027039 -0.0300    2.4700   
     2. B(B   2,B   1)                2.5000  0.026753 -0.0297    2.4703   
     3. B(B   2,B   0)                2.5000  0.032789 -0.0361    2.4639   
     4. B(B   3,B   2)                2.5000  0.032769 -0.0361    2.4639   
[...]
      pz      :     0.629152  p :     1.916061
      px      :     0.685778
      py      :     0.601130
      dz2     :     0.006837  d :     0.063126
      dxz     :     0.008891
      dyz     :     0.013323
      dx2y2   :     0.017569
      dxy     :     0.016507

  9 B s       :     2.812609  s :     2.812609
      pz      :     0.682836  p :     2.133900
      px      :     0.773833
      py      :     0.677231
      dz2     :     0.010874  d :     0.054933
      dxz     :     0.006454
      dyz     :     0.012628
      dx2y2   :     0.014068
      dxy     :     0.010909

 10 B s       :     2.556557  s :     2.556557
      pz      :     0.593929  p :     2.340784
      px      :     0.844715
      py      :     0.902140
      dz2     :     0.016041  d :     0.082174
      dxz     :     0.014793
      dyz     :     0.015623
      dx2y2   :     0.017124
      dxy     :     0.018593

 11 B s       :     2.496769  s :     2.496769
      pz      :     0.786734  p :     2.132882
      px      :     0.741566
      py      :     0.604582
      dz2     :     0.011640  d :     0.056226
      dxz     :     0.012562
      dyz     :     0.009073
      dx2y2   :     0.011021
      dxy     :     0.011929



                     *******************************
                     * LOEWDIN POPULATION ANALYSIS *
                     *******************************

----------------------
LOEWDIN ATOMIC CHARGES
----------------------
   0 B :    0.156563
   1 B :   -0.079561
   2 B :   -0.033498
   3 B :   -0.034013
   4 B :    0.002330
   5 B :    0.054061
   6 B :    0.028102
   7 B :    0.026612
   8 B :   -0.077981
   9 B :   -0.030152
  10 B :    0.053935
  11 B :   -0.066397

-------------------------------
LOEWDIN REDUCED ORBITAL CHARGES
-------------------------------
  0 B s       :     2.619522  s :     2.619522
      pz      :     0.626714  p :     2.011994
      px      :     0.796860
      py      :     0.588420
      dz2     :     0.040381  d :     0.211921
      dxz     :     0.041936
      dyz     :     0.032531
      dx2y2   :     0.050118
      dxy     :     0.046954

  1 B s       :     2.698699  s :     2.698699
      pz      :     0.749760  p :     2.232807
      px      :     0.691195
      py      :     0.791852
      dz2     :     0.038673  d :     0.148054
      dxz     :     0.028133
      dyz     :     0.028759
      dx2y2   :     0.027348
      dxy     :     0.025143

  2 B s       :     2.634285  s :     2.634285
      pz      :     0.783494  p :     2.223186
      px      :     0.674859
      py      :     0.764833
      dz2     :     0.033811  d :     0.176027
      dxz     :     0.039493
      dyz     :     0.035198
      dx2y2   :     0.039221
      dxy     :     0.028305

  3 B s       :     2.634461  s :     2.634461
      pz      :     0.671215  p :     2.223733
      px      :     0.838217
      py      :     0.714301
      dz2     :     0.028023  d :     0.175818
      dxz     :     0.030882
      dyz     :     0.034619
      dx2y2   :     0.038120
      dxy     :     0.044174

  4 B s       :     2.576511  s :     2.576511
      pz      :     0.668881  p :     2.226958
      px      :     0.769087
      py      :     0.788990
      dz2     :     0.033448  d :     0.194201
      dxz     :     0.032026
      dyz     :     0.042646
      dx2y2   :     0.043391
      dxy     :     0.042689

  5 B s       :     2.590991  s :     2.590991
      pz      :     0.838262  p :     2.151487
      px      :     0.571810
      py      :     0.741415
      dz2     :     0.048696  d :     0.203461
      dxz     :     0.043856
      dyz     :     0.044897
      dx2y2   :     0.034441
      dxy     :     0.031573

  6 B s       :     2.799618  s :     2.799618
      pz      :     0.632951  p :     2.044797
      px      :     0.780979
      py      :     0.630867
      dz2     :     0.025485  d :     0.127482
      dxz     :     0.030222
      dyz     :     0.021340
      dx2y2   :     0.031198
      dxy     :     0.019237

  7 B s       :     2.798424  s :     2.798424
      pz      :     0.529461  p :     2.047350
      px      :     0.602130
      py      :     0.915759
      dz2     :     0.020703  d :     0.127614
      dxz     :     0.022218
      dyz     :     0.023345
      dx2y2   :     0.027747
      dxy     :     0.033601

  8 B s       :     2.699222  s :     2.699222
      pz      :     0.710275  p :     2.230749
      px      :     0.754856
      py      :     0.765618
      dz2     :     0.015709  d :     0.148011
      dxz     :     0.026213
      dyz     :     0.032160
      dx2y2   :     0.041209
      dxy     :     0.032719

  9 B s       :     2.642917  s :     2.642917
      pz      :     0.690847  p :     2.254964
      px      :     0.819700
      py      :     0.744417
      dz2     :     0.026934  d :     0.132271
      dxz     :     0.017600
      dyz     :     0.023357
      dx2y2   :     0.034099
      dxy     :     0.030280

 10 B s       :     2.590375  s :     2.590375
      pz      :     0.571993  p :     2.151095
      px      :     0.763658
      py      :     0.815444
      dz2     :     0.039425  d :     0.204595
      dxz     :     0.033386
      dyz     :     0.038807
      dx2y2   :     0.046468
      dxy     :     0.046508

 11 B s       :     2.717490  s :     2.717490
      pz      :     0.828375  p :     2.208979
      px      :     0.763785
      py      :     0.616819
      dz2     :     0.031165  d :     0.139927
      dxz     :     0.036484
      dyz     :     0.020671
      dx2y2   :     0.025108
      dxy     :     0.026499



                      *****************************
                      * MAYER POPULATION ANALYSIS *
                      *****************************

  NA   - Mulliken gross atomic population
  ZA   - Total nuclear charge
  QA   - Mulliken gross atomic charge
  VA   - Mayer's total valence
  BVA  - Mayer's bonded valence
  FA   - Mayer's free valence

  ATOM       NA         ZA         QA         VA         BVA        FA
  0 B      4.9289     5.0000     0.0711     3.4050     3.4050     0.0000
  1 B      5.1307     5.0000    -0.1307     3.5688     3.5688    -0.0000
  2 B      5.0017     5.0000    -0.0017     3.9757     3.9757    -0.0000
  3 B      5.0024     5.0000    -0.0024     3.9737     3.9737    -0.0000
  4 B      4.8034     5.0000     0.1966     3.8394     3.8394     0.0000
  5 B      4.9766     5.0000     0.0234     3.7088     3.7088     0.0000
  6 B      5.1823     5.0000    -0.1823     3.5476     3.5476    -0.0000
  7 B      5.1774     5.0000    -0.1774     3.5494     3.5494     0.0000
  8 B      5.1298     5.0000    -0.1298     3.5628     3.5628    -0.0000
  9 B      5.0014     5.0000    -0.0014     4.6444     4.6444    -0.0000
 10 B      4.9795     5.0000     0.0205     3.7108     3.7108     0.0000
 11 B      4.6859     5.0000     0.3141     3.8977     3.8977    -0.0000

  Mayer bond orders larger than 0.100000
B(  0-B ,  1-B ) :   0.5909 B(  0-B ,  2-B ) :   0.4597 B(  0-B ,  3-B ) :   0.4585 
B(  0-B ,  5-B ) :   0.1567 B(  0-B ,  6-B ) :   0.4098 B(  0-B ,  7-B ) :   0.4111 
B(  0-B ,  8-B ) :   0.5876 B(  0-B , 10-B ) :   0.1565 B(  0-B , 11-B ) :   0.1470 
B(  1-B ,  2-B ) :   0.9455 B(  1-B ,  4-B ) :   0.1257 B(  1-B ,  5-B ) :   0.4789 
B(  1-B ,  6-B ) :   1.0126 B(  1-B ,  9-B ) :   0.1979 B(  2-B ,  3-B ) :   0.7597 
B(  2-B ,  4-B ) :   0.4846 B(  2-B ,  5-B ) :   0.5486 B(  2-B ,  6-B ) :   0.1491 
B(  2-B ,  7-B ) :   0.1291 B(  2-B ,  9-B ) :   0.3017 B(  3-B ,  4-B ) :   0.4865 
B(  3-B ,  6-B ) :   0.1293 B(  3-B ,  7-B ) :   0.1459 B(  3-B ,  8-B ) :   0.9460 
B(  3-B ,  9-B ) :   0.2997 B(  3-B , 10-B ) :   0.5471 B(  4-B ,  5-B ) :   0.7660 
B(  4-B ,  6-B ) :   0.1543 B(  4-B ,  7-B ) :   0.1559 B(  4-B ,  8-B ) :   0.1245 
B(  4-B ,  9-B ) :   0.6389 B(  4-B , 10-B ) :   0.7682 B(  5-B ,  6-B ) :   0.3169 
B(  5-B ,  9-B ) :   0.8267 B(  5-B , 10-B ) :   0.2662 B(  5-B , 11-B ) :   0.1893 
B(  6-B ,  7-B ) :   0.2085 B(  6-B ,  9-B ) :   0.1698 B(  6-B , 11-B ) :   0.9947 
B(  7-B ,  8-B ) :   1.0148 B(  7-B ,  9-B ) :   0.1655 B(  7-B , 10-B ) :   0.3171 
B(  7-B , 11-B ) :   0.9983 B(  8-B ,  9-B ) :   0.1969 B(  8-B , 10-B ) :   0.4792 
B(  9-B , 10-B ) :   0.8184 B(  9-B , 11-B ) :   1.0692 B( 10-B , 11-B ) :   0.1978 


-------
TIMINGS
-------

Total SCF time: 0 days 0 hours 0 min 4 sec 

Total time                  ....       4.885 sec
Sum of individual times     ....       4.493 sec  ( 92.0%)

SCF preparation             ....       0.573 sec  ( 11.7%)
Fock matrix formation       ....       3.236 sec  ( 66.2%)
  Startup                   ....       0.011 sec  (  0.3% of F)
  Split-RI-J                ....       1.136 sec  ( 35.1% of F)
  XC integration            ....       2.241 sec  ( 69.2% of F)
    XC Preparation          ....       0.000 sec  (  0.0% of XC)
    Basis function eval.    ....       0.499 sec  ( 22.3% of XC)
    Density eval.           ....       0.408 sec  ( 18.2% of XC)
    XC-Functional eval.     ....       0.060 sec  (  2.7% of XC)
    XC-Potential eval.      ....       0.498 sec  ( 22.2% of XC)
Diagonalization             ....       0.000 sec  (  0.0%)
Density matrix formation    ....       0.082 sec  (  1.7%)
Total Energy calculation    ....       0.071 sec  (  1.4%)
Population analysis         ....       0.173 sec  (  3.5%)
Orbital Transformation      ....       0.037 sec  (  0.8%)
Orbital Orthonormalization  ....       0.000 sec  (  0.0%)
DIIS solution               ....       0.068 sec  (  1.4%)
SOSCF solution              ....       0.253 sec  (  5.2%)
Finished LeanSCF after   5.2 sec

Maximum memory used throughout the entire LEANSCF-calculation: 12.8 MB


-------------------------------------------------------------------------------
                          DFT DISPERSION CORRECTION                            
                                                                               
                              DFTD3 V3.1  Rev 1                                
                          USING Becke-Johnson damping                          
-------------------------------------------------------------------------------
The BP86 functional is recognized
Active option DFTDOPT                   ...         4   

molecular C6(AA) [au] = 4154.297374 


            DFT-D V3
 parameters
 s6 scaling factor         :     1.0000 
 a1 scaling factor         :     0.3946 
 s8 scaling factor         :     3.2822 
 a2 scaling factor         :     4.8516 
 ad hoc parameters k1-k3   :    16.0000     1.3333    -4.0000 

 Edisp/kcal,au: -23.962389724880  -0.038186494641 
 E6   /kcal   :  -6.818812465 
 E8   /kcal   : -17.143577260 
 % E8         :  71.543687657 

-------------------------   ----------------
Dispersion correction           -0.038186495
-------------------------   ----------------


-------------------------   --------------------
FINAL SINGLE POINT ENERGY      -297.659724855913
-------------------------   --------------------

                                *** OPTIMIZATION RUN DONE ***



           ************************************************************
           *        Program running with 8 parallel MPI-processes     *
           *              working on a common directory               *
           ************************************************************

------------------------------------------------------------------------------
                              ORCA PROPERTY CALCULATIONS
------------------------------------------------------------------------------

GBWName                                 ... cuboctahedron_nn2.50.gbw
Number of atoms                         ...     12
Number of basis functions               ...    168
Max core memory                         ...   2500 MB

Electric properties:
Dipole moment                           ... YES
Quadrupole moment                       ...  NO
Static polarizability (Dipole/Dipole)   ...  NO
Static polarizability (Dipole/Quad.)    ...  NO
Static polarizability (Quad./Quad.)     ...  NO
Static polarizability (Velocity)        ...  NO
Static hyperpolarizability              ...  NO

Atomic electric properties:
Dipole moment                           ...  NO
Quadrupole moment                       ...  NO
Static polarizability                   ...  NO

Choice of electric origin               ... Center of mass
Position of electric origin             ...     0.000000     0.000000     0.000000

General magnetic properties:
Magnetizability                         ...  NO

EPR properties:
g-Tensor (aka g-matrix)                 ...  NO
Zero-Field splitting spin-orbit         ...  NO
Zero-field splitting spin-spin          ...  NO
Hyperfine couplings                     ...  NO (   0 nuclei)
Quadrupole couplings                    ...  NO (   0 nuclei)
Contact density                         ...  NO (   0 nuclei)

NMR properties:
Chemical shifts                         ...  NO (   0 nuclei)
Spin-rotation constants                 ...  NO (   0 nuclei)
Spin-spin couplings                     ...  NO (   0 nuclei,    0 pairs)

Choice of magnetic origin               ... GIAO
Position of magnetic origin             ...     0.000000     0.000000     0.000000

Properties with geometric perturbations:
SCF Hessian                             ...  NO
IR spectrum                             ...  NO
VCD spectrum                            ...  NO
X-ray spectroscopy properties:
SCF XES/XAS/RIXS spectra                ...  NO

SCF SOC stabilization energy            ...  NO
Diagonal Born-Oppenheimer correction    ...  NO

-------------
DIPOLE MOMENT
-------------

Method             : SCF
Type of density    : Electron Density
Multiplicity       :   1
Irrep              :   0
Energy             :  -297.6215383612713481 Eh
Basis              : AO
                                X                 Y                 Z
Electronic contribution:     -0.335209553      -0.082511949       0.580547575
Nuclear contribution   :      0.000000000       0.000000000       0.000000000
                        -----------------------------------------
Total Dipole Moment    :     -0.335209553      -0.082511949       0.580547575
                        -----------------------------------------
Magnitude (a.u.)       :      0.675432567
Magnitude (Debye)      :      1.716813148



--------------------
Rotational spectrum 
--------------------
 
Rotational constants in cm-1:             0.074583             0.068275             0.059862 
Rotational constants in MHz :          2235.937534          2046.828788          1794.624904 

Dipole components along the rotational axes: 
x,y,z [a.u.] :     0.002119     0.461060     0.493588 
x,y,z [Debye]:     0.005386     1.171920     1.254600 

 

Dipole moment calculation done in   0.1 sec 

Maximum memory used throughout the entire PROP-calculation: 10.4 MB

--------------------------------
SUGGESTED CITATIONS FOR THIS RUN
--------------------------------

Below you find a list of papers that are relevant to this ORCA run
We neither can nor want to force you to cite these papers, but we appreciate if you do
You receive ORCA, which is the product of decades of hard work by many enthusiastic individuals, for free
The only thing we kindly ask in return is that you cite our papers,
We deeply appreciate it, if you show your appreciation for ORCA by not just citing the generic ORCA reference.

Please note that relegating all ORCA citations to the supporting information does *not* help us.
SI sections are not indexed - citations you put there will not count into any citation statistics
But we need these citations in order to attract the funding resources that allow us to do what we are doing

Therefore, if you are a happy ORCA user, please consider citing a few of the papers listed below in the main body of your paper

In addition to the list printed below, the program has created the file cuboctahedron_nn2.50.bibtex that contains the list in bibtex format
You can import this file easily into all common literature databanks and citation aid programs

It goes without saying that in many instances, there are alternative algorithms to achieve similar
results as the ones you have gotten from ORCA. It is, of course, also the case that in some instances
ORCA just re-implements algorithms worked out by others. We are fully aware of that and we are also
fully appreciative of our colleagues work. Hence this citation list should not be read as indicating
that the listed papers, which are focused on our own work, are the only ones worth citing. It simply
meant to make it easier for users to cite ORCA specific papers. It is not a substitute for doing your
own literature research and citing the relevant literature in a scientifically appropriate manner.

List of essential papers. We consider these as the minimum necessary citations

  1. Neese, F.
     Software update: the ORCA program system, version 6.0
     WIRES Comput. Molec. Sci. 2025 15(1), e70019
     doi.org/10.1002/wcms.70019

List of papers to cite with high priority. The work reported in these papers was absolutely
necessary for this run to complete.
Our perspective: the developers of density functionals and basis sets usually get cited in chemistry papers
Good! But without the algorithms to do something with them, the functionals or basis sets would not do anything.
Hence, in our opinion, the algorithm design and method developments papers are equally worthy of getting cited

  1. Neese, F.
     An improvement of the resolution of the identity approximation for the formation of the Coulomb matrix
     J. Comp. Chem. 2003 24(14), 1740-1747
     doi.org/10.1002/jcc.10318
  2. Grimme, S.; Antony, J.; Ehrlich, S.; Krieg, H.
     A consistent and accurate ab initio parametrization of density functional dispersion correction (DFT-D) for the 94 elements H-Pu
     J. Chem. Phys. 2010 132 , 154104
     doi.org/10.1063/1.3382344
  3. Grimme, S.; Ehrlich, S.; Goerigk, L.
     Effect of the damping function in dispersion corrected density functional theory
     J. Comput. Chem. 2011 32(7), 1456-1465
     doi.org/10.1002/jcc.21759
  4. Neese, F.
     The SHARK Integral Generation and Digestion System
     J. Comp. Chem. 2022 44(3), 381
     doi.org/10.1002/jcc.26942

List of suggested additional citations. These are papers that are important in the 'surrounding' of 
of this run, or papers that preceded the highly important papers. If you like your results we are grateful for a citation.

  1. Neese, F.
     The ORCA program system
     WIRES Comput. Molec. Sci. 2012 2(1), 73-78
     doi.org/10.1002/wcms.81
  2. Neese, F.
     Software update: the ORCA program system, version 4.0
     WIRES Comput. Molec. Sci. 2018 8(1), 1-6
     doi.org/10.1002/wcms.1327
  3. Neese, F.; Wennmohs, F.; Becker, U.; Riplinger, C.
     The ORCA quantum chemistry program package
     J. Chem. Phys. 2020 152(22), 224108
     doi.org/10.1063/5.0004608
  4. Neese, F.
     Software update: The ORCA program system—Version 5.0
     WIRES Comput. Molec. Sci. 2022 12(1), e1606
     doi.org/10.1002/wcms.1606

List of optional additional citations

  1. Neese, F.
     Approximate second-order SCF convergence for spin unrestricted wavefunctions
     Chem. Phys. Lett. 2000 325(1-3), 93-98
     doi.org/10.1016/s0009-2614(00)00662-x

Timings for individual modules:

Sum of individual times          ...      815.516 sec (=  13.592 min)
Startup calculation              ...      100.528 sec (=   1.675 min)  12.3 %
SCF iterations                   ...      565.053 sec (=   9.418 min)  69.3 %
Property calculations            ...        0.795 sec (=   0.013 min)   0.1 %
SCF Gradient evaluation          ...      147.950 sec (=   2.466 min)  18.1 %
Geometry relaxation              ...        1.190 sec (=   0.020 min)   0.1 %
                             ****ORCA TERMINATED NORMALLY****
TOTAL RUN TIME: 0 days 0 hours 14 minutes 22 seconds 510 msec
