
                                 *****************
                                 * O   R   C   A *
                                 *****************

                                            #,                                       
                                            ###                                      
                                            ####                                     
                                            #####                                    
                                            ######                                   
                                           ########,                                 
                                     ,,################,,,,,                         
                               ,,#################################,,                 
                          ,,##########################################,,             
                       ,#########################################, ''#####,          
                    ,#############################################,,   '####,        
                  ,##################################################,,,,####,       
                ,###########''''           ''''###############################       
              ,#####''   ,,,,##########,,,,          '''####'''          '####       
            ,##' ,,,,###########################,,,                        '##       
           ' ,,###''''                  '''############,,,                           
         ,,##''                                '''############,,,,        ,,,,,,###''
      ,#''                                            '''#######################'''  
     '                                                          ''''####''''         
             ,#######,   #######,   ,#######,      ##                                
            ,#'     '#,  ##    ##  ,#'     '#,    #''#        ,####,    ,#,          
            ##       ##  ##   ,#'  ##            #'  '#       #'       ,# #          
            ##       ##  #######   ##           ,######,      #####,      #          
            '#,     ,#'  ##    ##  '#,     ,#' ,#      #,     #,   #      #          
             '#######'   ##     ##  '#######'  #'      '#     '####' #    #          



                #########################################################
                #                        -***-                          #
                #          Department of theory and spectroscopy        #
                #                                                       #
                #                      Frank Neese                      #
                #                                                       #
                #     Directorship, Architecture, Infrastructure        #
                #                    SHARK, DRIVERS                     #
                #        Core code/Algorithms in most modules           #
                #                                                       #
                #        Max Planck Institute fuer Kohlenforschung      #
                #                Kaiser Wilhelm Platz 1                 #
                #                 D-45470 Muelheim/Ruhr                 #
                #                      Germany                          #
                #                                                       #
                #                  All rights reserved                  #
                #                        -***-                          #
                #########################################################


                         Program Version 6.1.1  -  RELEASE   -
                                (GIT: $487d211c$)
                          ($2025-11-21 10:33:24 +0100$)
                                                                         
                                  - NO-DMRG VERSION -                    
                                                                         


 With contributions from (in alphabetic order):
[Max-Planck-Institut fuer Kohlenforschung]                               
  Daniel Aravena         : Magnetic Suceptibility                        
  Michael Atanasov       : Ab Initio Ligand Field Theory (pilot matlab implementation)
  Alexander A. Auer      : GIAO ZORA, VPT2 properties, NMR spectrum      
  Ute Becker             : All parallelization in ORCA, NUMFREQ, NUMCALC 
  Giovanni Bistoni       : ED, misc. LED, open-shell LED, HFLD           
  Dmytro Bykov           : pre 5.0 version of the SCF Hessian            
  Marcos Casanova-Páez   : Triplet and SCS-CIS(D). UHF-(DLPNO)-IP/EA/STEOM-CCSD. UHF-CVS-IP/STEOM-CCSD   
  Vijay G. Chilkuri      : MRCI spin determinant printing, contributions to CSF-ICE 
  Pauline Colinet        : FMM embedding                                 
  Dipayan Datta          : RHF DLPNO-CCSD density                        
  Achintya Kumar Dutta   : EOM-CC, STEOM-CC                              
  Nicolas Foglia         : Exact transition moments, OPA infrastructure, MCD improvements    
  Dmitry Ganyushin       : Spin-Orbit,Spin-Spin,Magnetic field MRCI      
  Miquel Garcia-Rates    : C-PCM and meta-GGA Hessian, CCSD/C-PCM, Gaussian charge scheme 
  Tiago L. C. Gouveia    : GS-ROHF, GS-ROCIS                             
  Yang Guo               : DLPNO-NEVPT2, F12-NEVPT2, CIM, IAO-localization        
  Andreas Hansen         : Spin unrestricted coupled pair/coupled cluster methods 
  Ingolf Harden          : AUTO-CI MPn and infrastructure                
  Benjamin Helmich-Paris : MC-RPA, TRAH-(SCF,CASSCF), AVAS, COSX integrals, SCF dyn. polar., MC-PDFT, srDFT 
  Lee Huntington         : MR-EOM, pCC                                   
  Robert Izsak           : Overlap fitted RIJCOSX, COSX-SCS-MP3, EOM     
  Riya Kayal             : Wick's Theorem for AUTO-CI, AUTO-CI UHF-CCSDT 
  Emily Kempfer          : AUTO-CI RHF CISDT and CCSDT, approximate NEVPT4
  Christian Kollmar      : KDIIS, OOCD, Brueckner-CCSD(T), CCSD density, CASPT2, CASPT2-K, improved NEVPT2 
  Axel Koslowski         : Symmetry handling                             
  Simone Kossmann        : meta-GGA functionals, TD-DFT gradient, OOMP2, (MP2 Hessian; deprecated post 5.0) 
  Lucas Lang             : DCDCAS, Hyperfine gauge corrections, ICE-SOC+SSC
  Marvin Lechner         : AUTO-CI (C++ implementation), FIC-MRCC        
  Spencer Leger          : CASSCF response                               
  Dagmar Lenk            : GEPOL surface, SMD, ORCA-2-JSON               
  Dimitrios Liakos       : Extrapolation schemes; Compound Job, Property file
  Dimitrios Manganas     : Further ROCIS development; embedding schemes. LFT, Crystal Embedding 
  Dimitrios Pantazis     : SARC Basis sets                               
  Anastasios Papadopoulos: AUTO-CI, single reference methods and gradients 
  Taras Petrenko         : pre 6.0 DFT Hessian and TD-DFT gradient,  ECA, NRVS 
  Petra Pikulova         : Analytic Raman intensities                    
  Peter Pinski           : DLPNO-MP2, DLPNO-MP2 Gradient                 
  Shashank Vittal Rao    : ES-AILFT, MagRelax                            
  Christoph Reimann      : Effective Core Potentials                     
  Marius Retegan         : Local ZFS, SOC                                
  Christoph Riplinger    : Optimizer, TS searches, QM/MM, DLPNO-CCSD(T), (RO)-DLPNO pert. Triples 
  Michael Roemelt        : Original ROCIS implementation, recursive CI coupling coefficients
  Masaaki Saitow         : Open-shell DLPNO-CCSD energy and density      
  Barbara Sandhoefer     : DKH picture change effects                    
  Yorick L. A. Schmerwitz: GMF and freeze-and-release deltaSCF, NEB S-IDPP initial path                    
  Kantharuban Sivalingam : CASSCF convergence/infrastructure, NEVPT2, NEVPT3, NEVPT4(SD), FIC-MRCI and CEPA variants
  Bernardo de Souza      : ESD, SOC TD-DFT                               
  Georgi L. Stoychev     : AutoAux, RI-MP2 NMR, DLPNO-MP2 response, X2C  
  Van Anh Tran           : RI-MP2 g-tensors                              
  Willem Van den Heuvel  : Paramagnetic NMR                              
  Zikuan Wang            : NOTCH, Electric field optimization            
  Frank Wennmohs         : Technical directorship and infrastructure     
  Hang Xu                : AUTO-CI-Response properties                   
                                                                         
[FACCTs GmbH]                                                            
  Markus Bursch, Nicolas Foglia, Miquel Garcia-Rates, Ingolf Harden, Hagen Neugebauer, Anastasios Papadopoulos, 
  Christoph Riplinger, Bernardo de Souza, Georgi L. Stoychev                                                    
                                                                 
  APM, various basis sets, CI-OPT, improved COSX, DLPNO-Multilevel,           
  DOCKER, DRACO, updates on ESD, Fragmentator, GOAT, IRC, LR-CPCM, L-BFGS, MBIS, meta-GGA TD-DFT gradient, ML-optimized integration grids, 
  MM, NACMEs, nearIR, NEB, NEB-TS, NL-DFT gradient (VV10), 2- and 3-layer-ONIOM, interface openCOSMO-RS, QMMM,   
  Crystal-QMMM, RESP, rigid body optimization, SF, symmetry and pop. for TD-DFT, various functionals, SOLVATOR                                   
                                                                         
[Other institutions]                                                     
  V. Asgeirsson          : NEB                                           
  Christoph Bannwarth    : sTDA-DFT, sTD-DFT, PBEh-3c, B97-3c, D3        
  Giovanni Bistoni       : ETS/NOCV, ADLD/ADEX, COVALED                  
  Martin Brehm           : Molecular dynamics                            
  Ronald Cardenas        : ETS/NOCV                                      
  Martina Colucci        : COVALED                                       
  Sebastian Ehlert       : rSCAN, r2SCAN, r2SCAN-3c, D4, dhf basis sets  
  Marvin Friede          : D4 for Fr, Ra, Ac-Lr                          
  Lars Goerigk           : TD-DFT with DH, B97 family of functionals     
  Stefan Grimme          : VdW corrections, initial TS optimization, DFT functionals, gCP, sTDA/sTD-DF 
  Waldemar Hujo          : DFT-NL                                        
  H. Jonsson             : NEB                                           
  Holger Kruse           : gCP                                           
  Marcel Mueller         : wB97X-3c, vDZP basis set                      
  Hagen Neugebauer       : wr2SCAN, Native XTB                           
  Gianluca Regni         : ADLD/ADEX                                     
  Tobias Risthaus        : pre 6.0 range-separated hybrid DFT and stability analysis
  Lukas Wittmann         : regularized MP2, r2SCAN double-hybrids, wr2SCAN        
                                                                         
We gratefully acknowledge several colleagues who have allowed us to      
interface, adapt or use parts of their codes:                            
  Ed Valeev, F. Pavosevic, A. Kumar             : LibInt (2-el integral package), F12 methods 
  Garnet Chan, S. Sharma, J. Yang, R. Olivares  : DMRG                   
  Ulf Ekstrom                                   : XCFun DFT Library      
  Mihaly Kallay                                 : mrcc  (arbitrary order and MRCC methods)
  Frank Weinhold                                : gennbo (NPA and NBO analysis)           
  Simon Mueller                                 : openCOSMO-RS                            
  Christopher J. Cramer and Donald G. Truhlar   : smd solvation model                     
  S Lehtola, MJT Oliveira, MAL Marques          : LibXC Library                           
  Liviu Ungur et al                             : ANISO software                          


 Your calculation uses the libint2 library for the computation of 2-el integrals
 For citations please refer to: http://libint.valeyev.net

 Your ORCA version has been built with support for libXC version: 7.0.0
 For citations please refer to: https://libxc.gitlab.io

 This ORCA versions uses:
   CBLAS   interface :  Fast vector & matrix operations
   LAPACKE interface :  Fast linear algebra routines
   SCALAPACK package :  Parallel linear algebra routines
   Shared memory     :  Shared parallel matrices
   BLAS/LAPACK       :  OpenBLAS 0.3.29  USE64BITINT DYNAMIC_ARCH NO_AFFINITY Zen SINGLE_THREADED
        Core in use  :  Zen
   Copyright (c) 2011-2014, The OpenBLAS Project


  ***********************************
  * Starting time: Fri Apr 24 01:22:42 2026
  * Host name:     vmi3233575
  * Process ID:    1596162
  * Working dir.:  /root/b12_scan/jobs/random1_nn2.00
  ***********************************

NOTE: MaxCore=2500 MB was set to SCF,MP2,MDCI,CIPSI,MRCI,RASCI and CIS
      => If you want to overwrite this, your respective input block should be placed after the MaxCore statement
Your calculation utilizes the atom-pairwise dispersion correction
with the Becke-Johnson damping scheme (D3BJ)


================================================================================

----- Orbital basis set information -----
Your calculation utilizes the basis: def2-SVP
   F. Weigend and R. Ahlrichs, Phys. Chem. Chem. Phys. 7, 3297 (2005).

----- AuxJ basis set information -----
Your calculation utilizes the auxiliary basis: def2/J
   H-Rn: F. Weigend, Phys. Chem. Chem. Phys. 8, 1057 (2006).
   Fr-Lr: K. Eichkorn, F. Weigend, O. Treutler, R. Ahlrichs; Theor. Chem. Acc. 97, 119 (1997).

================================================================================
                                        WARNINGS
                       Please study these warnings very carefully!
================================================================================


WARNING: Geometry Optimization
  ===> : Switching off AutoStart
         For restart on a previous wavefunction, please use MOREAD

================================================================================
                                       INPUT FILE
================================================================================
NAME = random1_nn2.00.inp
|  1> ! BP86 def2-SVP def2/J RI Opt TightSCF D3BJ
|  2> ! SlowConv
|  3> 
|  4> %pal nprocs 8 end
|  5> %maxcore 2500
|  6> 
|  7> %geom
|  8>   MaxIter 300
|  9> end
| 10> 
| 11> * xyz 0 1
| 12> B      3.32625938     -1.46729796     -1.10449428
| 13> B     -1.12297398      1.95883169     -1.96808824
| 14> B     -0.23325220     -2.74538076     -1.24980344
| 15> B     -2.03074165     -1.82327037      1.24649568
| 16> B     -3.20870418      0.09091573     -0.84563213
| 17> B      0.76916701     -1.83919982      1.89000826
| 18> B      0.16930233     -0.03632754      1.26565749
| 19> B      1.68190849      2.29771218     -2.12133044
| 20> B     -1.94618113      0.88701107      1.63964856
| 21> B      2.74160746      0.83527907      1.67717028
| 22> B      0.72299601      2.32729659      1.07474925
| 23> B     -0.86938754     -0.48556988     -1.50438098
| 24> *
| 25> 
| 26>                          ****END OF INPUT****
================================================================================

                       *****************************
                       * Geometry Optimization Run *
                       *****************************

Geometry optimization settings:
Update method            Update   .... BFGS
Choice of coordinates    CoordSys .... (2022) Redundant Internals
Initial Hessian          InHess   .... Almloef's Model
Max. no of cycles        MaxIter  .... 300

Convergence Tolerances:
Energy Change            TolE     ....  5.0000e-06 Eh
Max. Gradient            TolMAXG  ....  3.0000e-04 Eh/bohr
RMS Gradient             TolRMSG  ....  1.0000e-04 Eh/bohr
Max. Displacement        TolMAXD  ....  4.0000e-03 bohr
RMS Displacement         TolRMSD  ....  2.0000e-03 bohr
Strict Convergence                .... False

------------------------------------------------------------------------------
                        ORCA OPTIMIZATION COORDINATE SETUP
------------------------------------------------------------------------------

The optimization will be done in redundant internal coordinates (2022)
Making redundant internal coordinates   ...  (2022 redundants) done
Evaluating the initial hessian          ...  (Almloef) done
Evaluating the coordinates              ...  done
Calculating the B-matrix                .... done
Calculating the G-matrix                .... done
The number of degrees of freedom        ....  146

    -----------------------------------------------------------------
                    Redundant Internal Coordinates


    -----------------------------------------------------------------
         Definition                    Initial Value    Approx d2E/dq
    -----------------------------------------------------------------
      1. B(B   4,B   1)                  3.0165         0.010000   
      2. B(B   4,B   3)                  3.0706         0.010000   
      3. B(B   5,B   3)                  2.8730         0.010000   
      4. B(B   6,B   5)                  2.0000         0.089157   
      5. B(B   6,B   3)                  2.8344         0.010000   
      6. B(B   7,B   1)                  2.8294         0.010000   
      7. B(B   8,B   3)                  2.7400         0.010000   
      8. B(B   8,B   6)                  2.3383         0.025728   
      9. B(B   8,B   4)                  2.8990         0.010000   
     10. B(B   9,B   6)                  2.7470         0.010000   
     11. B(B   9,B   0)                  3.6581         0.010000   
     12. B(B  10,B   9)                  2.5814         0.010532   
     13. B(B  10,B   7)                  3.3370         0.010000   
     14. B(B  10,B   6)                  2.4351         0.018029   
     15. B(B  11,B   1)                  2.5009         0.014159   
     16. B(B  11,B   2)                  2.3614         0.023635   
     17. B(B  11,B   6)                  2.9923         0.010000   
     18. B(B  11,B   4)                  2.4977         0.014324   
     19. A(B   7,B   1,B  11)           91.5236         0.138514   
     20. A(B   4,B   1,B  11)           52.8337         0.131382   
     21. A(B   4,B   1,B   7)          141.2385         0.121251   
     22. A(B   5,B   3,B   8)           86.7477         0.128146   
     23. A(B   5,B   3,B   6)           41.0198         0.125190   
     24. A(B   4,B   3,B   8)           59.5336         0.122213   
     25. A(B   4,B   3,B   6)           84.7995         0.119705   
     26. A(B   6,B   3,B   8)           49.5676         0.129422   
     27. A(B   4,B   3,B   5)          122.0014         0.118736   
     28. A(B   1,B   4,B   8)           81.2474         0.119437   
     29. A(B   8,B   4,B  11)           83.2003         0.135853   
     30. A(B   1,B   4,B   3)          111.9809         0.115390   
     31. A(B   3,B   4,B   8)           54.5510         0.118098   
     32. A(B   1,B   4,B  11)           52.9291         0.131493   
     33. A(B   3,B   4,B  11)           71.1266         0.129623   
     34. A(B   3,B   5,B   6)           68.4552         0.161425   
     35. A(B   3,B   6,B   8)           63.1150         0.145448   
     36. A(B   3,B   6,B   9)          158.1100         0.129187   
     37. A(B   9,B   6,B  10)           59.3920         0.145010   
     38. A(B   3,B   6,B  10)          141.9904         0.141083   
     39. A(B   3,B   6,B   5)           70.5250         0.163786   
     40. A(B   8,B   6,B   9)          134.2612         0.149704   
     41. A(B   5,B   6,B   9)           87.6156         0.169424   
     42. A(B   8,B   6,B  10)           80.5009         0.167674   
     43. A(B   5,B   6,B  10)          146.2274         0.193232   
     44. A(B   3,B   6,B  11)           68.2631         0.121771   
     45. A(B   5,B   6,B  11)          104.9376         0.154584   
     46. A(B  10,B   6,B  11)           98.7474         0.134675   
     47. A(B   9,B   6,B  11)          120.7550         0.124242   
     48. A(B   8,B   6,B  11)           83.8750         0.138503   
     49. A(B   5,B   6,B   8)          125.2661         0.201967   
     50. A(B   1,B   7,B  10)           70.3862         0.113707   
     51. A(B   3,B   8,B   6)           67.3173         0.150059   
     52. A(B   3,B   8,B   4)           65.9154         0.127306   
     53. A(B   4,B   8,B   6)           98.5370         0.142494   
     54. A(B   6,B   9,B  10)           54.2803         0.138594   
     55. A(B   0,B   9,B   6)           80.5622         0.109261   
     56. A(B   0,B   9,B  10)          108.1396         0.112250   
     57. A(B   6,B  10,B   9)           66.3278         0.153274   
     58. A(B   6,B  10,B   7)           97.5750         0.123294   
     59. A(B   7,B  10,B   9)           89.6380         0.119365   
     60. A(B   1,B  11,B   2)          169.3174         0.162070   
     61. A(B   1,B  11,B   6)           93.4456         0.132244   
     62. A(B   1,B  11,B   4)           74.2372         0.154239   
     63. A(B   2,B  11,B   6)           87.1548         0.137561   
     64. A(B   2,B  11,B   4)          116.4069         0.162262   
     65. A(B   4,B  11,B   6)           92.6540         0.132357   
     66. D(B  11,B   4,B   3,B   6)     49.7400         0.010000   
     67. D(B   3,B   4,B   1,B  11)     42.0856         0.010000   
     68. D(B  11,B   4,B   3,B   8)     95.1514         0.010000   
     69. D(B  11,B   4,B   3,B   5)     31.5887         0.010000   
     70. D(B   3,B   4,B   1,B   7)     15.0736         0.010000   
     71. D(B  11,B   4,B   1,B   7)    -27.0121         0.010000   
     72. D(B   1,B   4,B   3,B   8)     60.7377         0.010000   
     73. D(B   8,B   4,B   1,B  11)     88.0618         0.010000   
     74. D(B   8,B   4,B   3,B   6)    -45.4114         0.010000   
     75. D(B   8,B   4,B   1,B   7)     61.0497         0.010000   
     76. D(B   8,B   4,B   3,B   5)    -63.5627         0.010000   
     77. D(B   6,B   5,B   3,B   4)     28.2100         0.010000   
     78. D(B   6,B   5,B   3,B   8)    -22.4171         0.010000   
     79. D(B   5,B   6,B   3,B   4)   -156.2638         0.010000   
     80. D(B   5,B   6,B   3,B   8)    149.9873         0.010000   
     81. D(B  11,B   6,B   5,B   3)    -59.9405         0.010000   
     82. D(B  10,B   6,B   5,B   3)    167.0541         0.010000   
     83. D(B   9,B   6,B   3,B   5)     -3.1611         0.010000   
     84. D(B   9,B   6,B   3,B   8)    146.8263         0.010000   
     85. D(B  10,B   6,B   3,B   5)   -168.3320         0.010000   
     86. D(B  10,B   6,B   3,B   4)     35.4042         0.010000   
     87. D(B   9,B   6,B   5,B   3)    178.8210         0.010000   
     88. D(B   9,B   6,B   3,B   4)   -159.4248         0.010000   
     89. D(B  10,B   6,B   3,B   8)    -18.3447         0.010000   
     90. D(B   8,B   6,B   5,B   3)     33.1208         0.010000   
     91. D(B  10,B   7,B   1,B   4)    -60.7852         0.010000   
     92. D(B  10,B   7,B   1,B  11)    -82.0117         0.010000   
     93. D(B   6,B   8,B   3,B   4)   -111.2882         0.010000   
     94. D(B   6,B   8,B   3,B   5)     19.1969         0.010000   
     95. D(B   4,B   8,B   3,B   5)    130.4851         0.010000   
     96. D(B   4,B   8,B   3,B   6)    111.2882         0.010000   
     97. D(B   4,B   8,B   6,B  10)    109.3305         0.010000   
     98. D(B   4,B   8,B   6,B   5)    -94.6167         0.010000   
     99. D(B   3,B   8,B   6,B  11)     68.7030         0.010000   
    100. D(B   3,B   8,B   4,B  11)    -71.6389         0.010000   
    101. D(B   3,B   8,B   6,B   5)    -35.2799         0.010000   
    102. D(B   3,B   8,B   4,B   1)   -125.0644         0.010000   
    103. D(B   3,B   8,B   6,B   9)   -163.4498         0.010000   
    104. D(B   6,B   8,B   4,B   1)    -64.6834         0.010000   
    105. D(B   6,B   8,B   4,B  11)    -11.2579         0.010000   
    106. D(B   6,B   8,B   4,B   3)     60.3809         0.010000   
    107. D(B   4,B   8,B   6,B   9)    137.2133         0.010000   
    108. D(B   3,B   8,B   6,B  10)    168.6673         0.010000   
    109. D(B  10,B   9,B   6,B   8)    -32.4065         0.010000   
    110. D(B  10,B   9,B   6,B   5)   -172.4312         0.010000   
    111. D(B   0,B   9,B   6,B  11)    -38.9675         0.010000   
    112. D(B   0,B   9,B   6,B   3)     70.0029         0.010000   
    113. D(B   0,B   9,B   6,B   8)   -152.9549         0.010000   
    114. D(B   0,B   9,B   6,B  10)   -120.5485         0.010000   
    115. D(B   0,B   9,B   6,B   5)     67.0203         0.010000   
    116. D(B   7,B  10,B   9,B   6)    -98.4361         0.010000   
    117. D(B   7,B  10,B   9,B   0)    -35.0594         0.010000   
    118. D(B   6,B  10,B   9,B   0)     63.3768         0.010000   
    119. D(B   9,B  10,B   7,B   1)    137.2054         0.010000   
    120. D(B   7,B  10,B   6,B   8)   -116.6430         0.010000   
    121. D(B   7,B  10,B   6,B   9)     86.2583         0.010000   
    122. D(B   7,B  10,B   6,B   5)     99.9524         0.010000   
    123. D(B   6,B  10,B   7,B   1)     71.1521         0.010000   
    124. D(B   9,B  10,B   6,B  11)   -120.6716         0.010000   
    125. D(B   9,B  10,B   6,B   3)    173.6347         0.010000   
    126. D(B   9,B  10,B   6,B   8)    157.0987         0.010000   
    127. D(B   9,B  10,B   6,B   5)     13.6940         0.010000   
    128. D(B   4,B  11,B   1,B   7)    163.4739         0.010000   
    129. D(B   2,B  11,B   6,B   9)     94.0500         0.010000   
    130. D(B   2,B  11,B   6,B  10)    153.5259         0.010000   
    131. D(B   4,B  11,B   6,B   3)     52.6821         0.010000   
    132. D(B   4,B  11,B   6,B   8)    -10.7776         0.010000   
    133. D(B   4,B  11,B   6,B   9)   -149.6247         0.010000   
    134. D(B   4,B  11,B   6,B   5)    114.1381         0.010000   
    135. D(B   2,B  11,B   4,B   1)   -179.0268         0.010000   
    136. D(B   2,B  11,B   4,B   3)     42.0320         0.010000   
    137. D(B   2,B  11,B   4,B   8)     96.8264         0.010000   
    138. D(B   6,B  11,B   4,B   1)     92.8334         0.010000   
    139. D(B   4,B  11,B   6,B  10)    -90.1488         0.010000   
    140. D(B   6,B  11,B   4,B   3)    -46.1078         0.010000   
    141. D(B   6,B  11,B   4,B   8)      8.6866         0.010000   
    142. D(B   2,B  11,B   1,B   7)    -21.2333         0.010000   
    143. D(B   2,B  11,B   6,B   5)     -2.1871         0.010000   
    144. D(B   2,B  11,B   1,B   4)    175.2928         0.010000   
    145. D(B   6,B  11,B   1,B   7)     71.6856         0.010000   
    146. D(B   6,B  11,B   1,B   4)    -91.7883         0.010000   
    -----------------------------------------------------------------

Number of atoms                         .... 12
Number of degrees of freedom            .... 146


         *************************************************************
         *                GEOMETRY OPTIMIZATION CYCLE   1            *
         *************************************************************
---------------------------------
CARTESIAN COORDINATES (ANGSTROEM)
---------------------------------
  B      3.326259   -1.467298   -1.104494
  B     -1.122974    1.958832   -1.968088
  B     -0.233252   -2.745381   -1.249803
  B     -2.030742   -1.823270    1.246496
  B     -3.208704    0.090916   -0.845632
  B      0.769167   -1.839200    1.890008
  B      0.169302   -0.036328    1.265657
  B      1.681908    2.297712   -2.121330
  B     -1.946181    0.887011    1.639649
  B      2.741607    0.835279    1.677170
  B      0.722996    2.327297    1.074749
  B     -0.869388   -0.485570   -1.504381

----------------------------
CARTESIAN COORDINATES (A.U.)
----------------------------
  NO LB      ZA    FRAG     MASS         X           Y           Z
   0 B     5.0000    0    10.810    6.285719   -2.772791   -2.087192
   1 B     5.0000    0    10.810   -2.122113    3.701655   -3.719148
   2 B     5.0000    0    10.810   -0.440783   -5.188018   -2.361786
   3 B     5.0000    0    10.810   -3.837546   -3.445482    2.355535
   4 B     5.0000    0    10.810   -6.063572    0.171806   -1.598013
   5 B     5.0000    0    10.810    1.453515   -3.475584    3.571598
   6 B     5.0000    0    10.810    0.319935   -0.068649    2.391746
   7 B     5.0000    0    10.810    3.178346    4.342047   -4.008734
   8 B     5.0000    0    10.810   -3.677749    1.676208    3.098487
   9 B     5.0000    0    10.810    5.180887    1.578449    3.169393
  10 B     5.0000    0    10.810    1.366264    4.397953    2.030982
  11 B     5.0000    0    10.810   -1.642904   -0.917594   -2.842868

--------------------------------
INTERNAL COORDINATES (ANGSTROEM)
--------------------------------
 B      0   0   0     0.000000000000     0.00000000     0.00000000
 B      1   0   0     5.681534686869     0.00000000     0.00000000
 B      1   2   0     3.784802912146    57.40551337     0.00000000
 B      3   1   2     3.211349434540   113.55342078   291.10264979
 B      2   1   3     3.016502647055    96.40146888    20.34072090
 B      4   3   1     2.872951564565    68.10073187   335.54704809
 B      6   4   3     1.999999994076    68.45517203    93.12771970
 B      2   1   3     2.829432598398    45.90481691   190.02714540
 B      7   6   4     2.338310026213   125.26612943    33.12078657
 B      7   6   4     2.746960964549    87.61559074   178.82096514
 B      7   6   4     2.435106091178   146.22737898   167.05413557
 B      3   1   2     2.361402783948    86.23480560   357.37900463

---------------------------
INTERNAL COORDINATES (A.U.)
---------------------------
 B      0   0   0     0.000000000000     0.00000000     0.00000000
 B      1   0   0    10.736544578556     0.00000000     0.00000000
 B      1   2   0     7.152240974824    57.40551337     0.00000000
 B      3   1   2     6.068570951603   113.55342078   291.10264979
 B      2   1   3     5.700363885183    96.40146888    20.34072090
 B      4   3   1     5.429091653049    68.10073187   335.54704809
 B      6   4   3     3.779452256648    68.45517203    93.12771970
 B      2   1   3     5.346852725361    45.90481691   190.02714540
 B      7   6   4     4.418765565746   125.26612943    33.12078657
 B      7   6   4     5.191003923569    87.61559074   178.82096514
 B      7   6   4     4.601683619369   146.22737898   167.05413557
 B      3   1   2     4.462404553540    86.23480560   357.37900463

---------------------
BASIS SET INFORMATION
---------------------
There are 1 groups of distinct atoms

 Group   1 Type B   : 7s4p1d contracted to 3s2p1d pattern {511/31/1}

Atom   0B    basis set group =>   1
Atom   1B    basis set group =>   1
Atom   2B    basis set group =>   1
Atom   3B    basis set group =>   1
Atom   4B    basis set group =>   1
Atom   5B    basis set group =>   1
Atom   6B    basis set group =>   1
Atom   7B    basis set group =>   1
Atom   8B    basis set group =>   1
Atom   9B    basis set group =>   1
Atom  10B    basis set group =>   1
Atom  11B    basis set group =>   1
---------------------------------
AUXILIARY/J BASIS SET INFORMATION
---------------------------------
There are 1 groups of distinct atoms

 Group   1 Type B   : 12s5p4d2f1g contracted to 6s4p3d1f1g pattern {711111/2111/211/2/1}

Atom   0B    basis set group =>   1
Atom   1B    basis set group =>   1
Atom   2B    basis set group =>   1
Atom   3B    basis set group =>   1
Atom   4B    basis set group =>   1
Atom   5B    basis set group =>   1
Atom   6B    basis set group =>   1
Atom   7B    basis set group =>   1
Atom   8B    basis set group =>   1
Atom   9B    basis set group =>   1
Atom  10B    basis set group =>   1
Atom  11B    basis set group =>   1


           ************************************************************
           *        Program running with 8 parallel MPI-processes     *
           *              working on a common directory               *
           ************************************************************
------------------------------------------------------------------------------
                             ORCA STARTUP CALCULATIONS
                           -- RI-GTO INTEGRALS CHOSEN --
------------------------------------------------------------------------------
------------------------------------------------------------------------------
                   ___                                                        
                  /   \      - P O W E R E D   B Y -                         
                 /     \                                                     
                 |  |  |   _    _      __       _____    __    __             
                 |  |  |  | |  | |    /  \     |  _  \  |  |  /  |          
                  \  \/   | |  | |   /    \    | | | |  |  | /  /          
                 / \  \   | |__| |  /  /\  \   | |_| |  |  |/  /          
                |  |  |   |  __  | /  /__\  \  |    /   |      \           
                |  |  |   | |  | | |   __   |  |    \   |  |\   \          
                \     /   | |  | | |  |  |  |  | |\  \  |  | \   \       
                 \___/    |_|  |_| |__|  |__|  |_| \__\ |__|  \__/        
                                                                              
                      - O R C A' S   B I G   F R I E N D -                    
                                      &                                       
                       - I N T E G R A L  F E E D E R -                       
                                                                              
 v1 FN, 2020, v2 2021, v3 2022-2024                                           
------------------------------------------------------------------------------


----------------------
SHARK INTEGRAL PACKAGE
----------------------

Number of atoms                             ...     12
Number of basis functions                   ...    168
Number of shells                            ...     72
Maximum angular momentum                    ...      2
Integral batch strategy                     ... SHARK/LIBINT Hybrid
RI-J (if used) integral strategy            ... SPLIT-RIJ (Revised 2003 algorithm where possible)
Printlevel                                  ...      1
Contraction scheme used                     ... SEGMENTED contraction
Prescreening option                         ... SCHWARTZ
   Thresh                                   ... 2.500e-11
   Tcut                                     ... 2.500e-12
   Tpresel                                  ... 2.500e-12 
Coulomb Range Separation                    ... NOT USED
Exchange Range Separation                   ... NOT USED
Multipole approximations                    ... NOT USED
Finite Nucleus Model                        ... NOT USED
CABS basis                                  ... NOT available
Auxiliary Coulomb fitting basis             ... AVAILABLE
   # of basis functions in Aux-J            ...    588
   # of shells in Aux-J                     ...    180
   Maximum angular momentum in Aux-J        ...      4
Auxiliary J/K fitting basis                 ... NOT available
Auxiliary Correlation fitting basis         ... NOT available
Auxiliary 'external' fitting basis          ... NOT available

Checking pre-screening integrals            ... done (  0.0 sec) Dimension = 72
   => SHARK Basis and OBASIS are compatible. Storing Pre-screening
Shell pair information
Shell pair cut-off parameter TPreSel        ...   2.5e-12
Total number of shell pairs                 ...      2628
Shell pairs after pre-screening             ...      2459
Total number of primitive shell pairs       ...     10596
Primitive shell pairs kept                  ...      6671
          la=0 lb=0:    585 shell pairs
          la=1 lb=0:    830 shell pairs
          la=1 lb=1:    300 shell pairs
          la=2 lb=0:    384 shell pairs
          la=2 lb=1:    286 shell pairs
          la=2 lb=2:     74 shell pairs

Checking whether 4 symmetric matrices of dimension 168 fit in memory
:Max Core in MB      =   2500.00
 MB in use           =      6.58
 MB left             =   2493.42
 MB needed           =      0.43
 Data fit in memory  = YES
Calculating RI/J V-Matrix + Cholesky decomp.... done (  0.1 sec)
Calculating Nuclear repulsion               ... done (  0.0 sec) ENN=    229.313600614101 Eh

Diagonalization of the overlap matrix:
Smallest eigenvalue                        ... 4.745e-03
Time for diagonalization                   ...    0.005 sec
Threshold for overlap eigenvalues          ... 1.000e-07
Number of eigenvalues below threshold      ... 0
Time for construction of square roots      ...    0.002 sec
Total time needed                          ...    0.010 sec

-------------------
DFT GRID GENERATION
-------------------

General Integration Accuracy     IntAcc      ... 4.388
Radial Grid Type                 RadialGrid  ... OptM3 with GC (2021)
Angular Grid (max. ang.)         AngularGrid ... 4 (Lebedev-302)
Angular grid pruning method      GridPruning ... 4 (adaptive)
Weight generation scheme         WeightScheme... mBecke (2022)
Basis function cutoff            BFCut       ... 1.0000e-11
Integration weight cutoff        WCut        ... 1.0000e-14
Partially contracted basis set               ... off
Rotationally invariant grid construction     ... off
Angular grids for H and He will be reduced by one unit

Total number of grid points                  ...    72717
Total number of batches                      ...     1141
Average number of points per batch           ...       63
Average number of grid points per atom       ...     6060
Grids setup in   0.7 sec
Initializing property integral containers    ... done (  0.0 sec)

SHARK setup successfully completed in   0.9 seconds

Maximum memory used throughout the entire STARTUP-calculation: 19.8 MB


           ************************************************************
           *        Program running with 8 parallel MPI-processes     *
           *              working on a common directory               *
           ************************************************************
-------------------------------------------------------------------------------
                                 ORCA GUESS
                   Start orbitals & Density for SCF / CASSCF
-------------------------------------------------------------------------------

------------
SCF SETTINGS
------------
Hamiltonian:
 Density Functional     Method          .... DFT(GTOs)
 Exchange Functional    Exchange        .... B88
   X-Alpha parameter    XAlpha          ....  0.666667
   Becke's b parameter  XBeta           ....  0.004200
 Correlation Functional Correlation     .... P86
 LDA part of GGA corr.  LDAOpt          .... PW91-LDA
 Gradients option       PostSCFGGA      .... off
   NL short-range parameter             ....  4.400000
 RI-approximation to the Coulomb term is turned on
   Number of AuxJ basis functions       .... 588


General Settings:
 Integral files         IntName         .... random1_nn2.00
 Hartree-Fock type      HFTyp           .... RHF
 Total Charge           Charge          ....    0
 Multiplicity           Mult            ....    1
 Number of Electrons    NEL             ....   60
 Basis Dimension        Dim             ....  168
 Nuclear Repulsion      ENuc            ....    229.3136006141 Eh

Convergence Acceleration:
 AO-DIIS                CNVDIIS         .... on
   Start iteration      DIISMaxIt       ....     0
   Startup error        DIISStart       ....  0.200000
   # of expansion vecs  DIISMaxEq       ....     5
   Bias factor          DIISBfac        ....   1.050
   Max. coefficient     DIISMaxC        ....  10.000
 MO-DIIS                CNVKDIIS        .... off
 Trust-Rad. Augm. Hess. CNVTRAH         .... auto
   Auto Start mean grad. ratio tolernc. ....  1.125000
   Auto Start start iteration           ....    50
   Auto Start num. interpolation iter.  ....    10
   Max. Number of Micro iterations      ....    24
   Max. Number of Macro iterations      .... Maxiter - #DIIS iter
   Number of Davidson start vectors     ....     2
   Converg. threshold    (grad. norm)   ....   1.000e-05
   Grad. Scal. Fac. for Micro threshold ....   0.100
   Minimum threshold for Micro iter.    ....   1.000e-02
   NR start threshold (gradient norm)   ....   1.000e-04
   Initial trust radius                 ....   0.400
   Minimum AH scaling param. (alpha)    ....   1.000
   Maximum AH scaling param. (alpha)    .... 1000.000
   Quad. conv. algorithm                .... NR
   White noise on init. David. guess    .... on
   Maximum white noise                  ....   0.010
   Pseudo random numbers                .... off
   Inactive MOs                         .... canonical
   Orbital update algorithm             .... Taylor
   Preconditioner                       .... Diag
   Full preconditioner red. dimension   ....   250
 SOSCF                 CNVSOSCF           .... on
   Start iteration     SOSCFMaxIt         ....   150
   Startup grad/error  SOSCFStart         ....  0.001000
   Hessian update      SOSCFHessUp        .... L-BFGS
   Autom. constraints  SOSCFAutoConstrain .... off
 Level Shifting         CNVShift        .... on
   Level shift para.    LevelShift      ....    0.2500
   Turn off err/grad.   ShiftErr        ....    0.0000
 Zerner damping         CNVZerner       .... off
 Static damping         CNVDamp         .... on
   Fraction old density DampFac         ....    0.8500
   Max. Damping (<1)    DampMax         ....    0.9800
   Min. Damping (>=0)   DampMin         ....    0.0000
   Turn off err/grad.   DampErr         ....    0.0300

SCF Procedure:
 Maximum # iterations   MaxIter         ....   125
 SCF integral mode      SCFMode         .... Direct
   Integral package                     .... SHARK and LIBINT hybrid scheme
 Reset frequency        DirectResetFreq ....    20
 Integral Threshold     Thresh          ....  2.500e-11 Eh
 Primitive CutOff       TCut            ....  2.500e-12 Eh

Convergence Tolerance:
 Convergence Check Mode ConvCheckMode   .... Total+1el-Energy
 Convergence forced     ConvForced      .... 0
 Energy Change          TolE            ....  1.000e-08 Eh
 1-El. energy change                    ....  1.000e-05 Eh
 Orbital Gradient       TolG            ....  1.000e-05
 Orbital Rotation angle TolX            ....  1.000e-05
 DIIS Error             TolErr          ....  5.000e-07

------------------------------
INITIAL GUESS: MODEL POTENTIAL
------------------------------
Loading Hartree-Fock densities                     ... done
Calculating cut-offs                               ... done
Initializing the effective Hamiltonian             ... done
Setting up the integral package (SHARK)            ... done
Starting the Coulomb interaction                   ... done (   0.0 sec)
Making the grid                                    ... done (   0.1 sec)
Mapping shells                                     ... done
Starting the XC term evaluation                    ... done (   0.0 sec)
  promolecular density results
     # of electrons  =     60.000408196
     EX              =    -44.389991879
     EC              =     -1.718787779
     EX+EC           =    -46.108779658
Transforming the Hamiltonian                       ... done (   0.0 sec)
Diagonalizing the Hamiltonian                      ... done (   0.0 sec)
Back transforming the eigenvectors                 ... done (   0.0 sec)
Now organizing SCF variables                       ... done
                      ------------------
                      INITIAL GUESS DONE (   0.3 sec)
                      ------------------
             **** ENERGY FILE WAS UPDATED (random1_nn2.00.en.tmp) ****
Finished Guess after   0.7 sec
Maximum memory used throughout the entire GUESS-calculation: 9.3 MB


           ************************************************************
           *        Program running with 8 parallel MPI-processes     *
           *              working on a common directory               *
           ************************************************************

-------------------------------------------------------------------------------------------
                                      ORCA LEAN-SCF
                              memory conserving SCF solver
-------------------------------------------------------------------------------------------

----------------------------------------D-I-I-S--------------------------------------------
Iteration    Energy (Eh)           Delta-E    RMSDP     MaxDP     DIISErr   Damp  Time(sec)
-------------------------------------------------------------------------------------------
               ***  Starting incremental Fock matrix formation  ***
    1    -295.5791006781852843     0.00e+00  1.53e-02  1.94e-01  1.74e-01  0.850   0.3
Warning: op=0 Small HOMO/LUMO gap (  -0.161) - skipping pre-diagonalization
         LevelShift set to 0.261 Eh
         Will do a full diagonalization
    2    -295.9298438813228245    -3.51e-01  1.04e-02  7.97e-02  6.47e-02  0.850   0.4
                               ***Turning on AO-DIIS***
    3    -295.7562272432255099     1.74e-01  7.72e-03  4.13e-02  5.58e-02  0.850   0.4
    4    -295.5159026113603318     2.40e-01  6.09e-03  4.49e-02  8.52e-02  0.850   0.3
    5    -295.3720139459310872     1.44e-01  5.14e-03  4.34e-02  9.60e-02  0.850   0.3
    6    -295.3166050961996802     5.54e-02  4.41e-03  3.62e-02  1.21e-01  0.850   0.3
    7    -295.3079202735347621     8.68e-03  4.37e-03  3.10e-02  1.43e-01  0.850   0.3
    8    -295.3537968586112470    -4.59e-02  5.39e-03  5.92e-02  1.59e-01  0.850   0.2
    9    -295.4903120340472356    -1.37e-01  6.44e-03  5.95e-02  1.58e-01  0.850   0.3
   10    -295.7176953608615690    -2.27e-01  5.86e-03  5.30e-02  1.21e-01  0.850   0.3
   11    -295.8646676336994119    -1.47e-01  4.89e-03  3.66e-02  7.81e-02  0.850   0.3
   12    -295.9327431775221271    -6.81e-02  4.08e-03  4.28e-02  4.36e-02  0.850   0.5
   13    -295.9588373628810700    -2.61e-02  3.55e-03  4.46e-02  4.35e-02  0.850   0.6
   14    -295.9713386045903576    -1.25e-02  3.19e-03  4.05e-02  4.08e-02  0.850   0.4
   15    -295.9844256803031044    -1.31e-02  2.87e-03  3.23e-02  3.49e-02  0.850   0.3
   16    -296.0006068202279153    -1.62e-02  2.57e-03  2.32e-02  3.72e-02  0.850   0.5
   17    -296.0185299585371581    -1.79e-02  2.43e-03  1.90e-02  4.19e-02  0.850   1.0
   18    -296.0385919134847086    -2.01e-02  2.40e-03  1.77e-02  4.21e-02  0.850   0.5
   19    -296.0593123614083311    -2.07e-02  2.19e-03  1.68e-02  3.66e-02  0.850   0.4
   20    -296.0764439416099663    -1.71e-02  1.88e-03  1.61e-02  2.76e-02  0.850   0.3
               *** Restarting incremental Fock matrix formation ***
                             ****Resetting DIIS****
Warning: op=0 Small HOMO/LUMO gap (  -0.016) - skipping pre-diagonalization
         Will do a full diagonalization
   21    -296.0891574245354718    -1.27e-02  1.33e-02  1.23e-01  1.78e-02  0.000   0.4
   22    -296.0660821299213126     2.31e-02  3.53e-03  3.74e-02  7.75e-02  0.000   0.3
   23    -296.0994635383971740    -3.34e-02  3.63e-04  3.64e-03  5.35e-02  0.850   0.3
   24    -296.1030503609378570    -3.59e-03  5.06e-04  4.30e-03  5.16e-02  0.850   0.2
   25    -296.1081908246704302    -5.14e-03  5.64e-04  4.25e-03  4.87e-02  0.850   0.2
   26    -296.1137796577932590    -5.59e-03  1.54e-03  1.65e-02  4.54e-02  0.850   0.4
   27    -296.1252119003062830    -1.14e-02  1.29e-03  1.17e-02  3.78e-02  0.850   0.4
   28    -296.1344174785060090    -9.21e-03  1.02e-03  8.81e-03  2.70e-02  0.850   0.4
   29    -296.1400882474491141    -5.67e-03  5.51e-03  4.33e-02  1.81e-02  0.000   0.3
   30    -296.1419386720379521    -1.85e-03  1.22e-03  1.23e-02  2.17e-02  0.000   0.3
   31    -296.1454152913530038    -3.48e-03  7.66e-04  7.13e-03  1.38e-02  0.000   0.3
   32    -296.1475174899339322    -2.10e-03  5.28e-04  4.17e-03  1.08e-02  0.000   0.3
   33    -296.1486769952916234    -1.16e-03  3.98e-04  2.04e-03  8.05e-03  0.000   0.3
   34    -296.1493622670910213    -6.85e-04  4.25e-04  3.12e-03  5.86e-03  0.000   0.7
   35    -296.1498089048345150    -4.47e-04  5.10e-04  3.67e-03  3.59e-03  0.000   0.3
   36    -296.1499973675046817    -1.88e-04  3.84e-04  3.30e-03  2.00e-03  0.000   0.3
   37    -296.1501729974202703    -1.76e-04  2.96e-04  1.74e-03  1.50e-03  0.000   0.3
                              *** Initializing SOSCF ***
---------------------------------------S-O-S-C-F--------------------------------------
Iteration    Energy (Eh)           Delta-E    RMSDP     MaxDP     MaxGrad    Time(sec)
--------------------------------------------------------------------------------------
   38    -296.1502520019985809    -7.90e-05  2.12e-04  1.92e-03  5.37e-04     0.7
               *** Restarting incremental Fock matrix formation ***
   39    -296.1502985110631130    -4.65e-05  4.89e-04  2.62e-03  8.56e-04     0.4
   40    -296.1503406162636907    -4.21e-05  1.42e-03  7.22e-03  1.15e-03     0.4
   41    -296.1505950498876132    -2.54e-04  4.68e-03  2.31e-02  8.21e-04     0.7
   42    -296.1504351826344532     1.60e-04  1.10e-03  1.13e-02  2.77e-03     1.1
   43    -296.1507823317968473    -3.47e-04  2.31e-03  1.64e-02  2.14e-03     1.5
   44    -296.1504908022098448     2.92e-04  1.60e-03  1.15e-02  2.72e-03     1.1
   45    -296.1509529663135822    -4.62e-04  1.50e-03  9.16e-03  8.33e-04     0.3
   46    -296.1508671019008148     8.59e-05  5.70e-04  5.15e-03  2.21e-03     0.3
   47    -296.1510508155578805    -1.84e-04  5.57e-04  4.24e-03  4.88e-04     0.3
   48    -296.1510854419214525    -3.46e-05  9.74e-04  3.93e-03  6.08e-04     0.4
   49    -296.1511800124943079    -9.46e-05  3.67e-03  1.64e-02  6.24e-04     0.3
   50    -296.1512974962299154    -1.17e-04  1.19e-03  4.65e-03  8.35e-04     0.6
   51    -296.1513506890340182    -5.32e-05  3.83e-04  3.00e-03  5.14e-04     0.4
   52    -296.1513924801619737    -4.18e-05  5.78e-04  3.18e-03  4.26e-04     0.9
   53    -296.1514179505730340    -2.55e-05  7.97e-04  2.75e-03  7.92e-04     0.4

       ******************************************************************************
       ***                                                                        ***
       ***                               Auto-TRAH                                ***
       ***                               ---------                                ***
       *** the maximum gradient error decreased on average only by a factor   1.1 ***
       *** during the last  10 iterations                                         ***
       ***                                                                        ***
       ***               Leaving SCF to start the TRAH-SCF procedure              ***
       ***                                                                        ***
       ******************************************************************************

 --------------------------------------------------------------------------------------------
   Iter.        energy            ||Error||_2        Shift      TRadius  Mac/Mic        Rej.
 --------------------------------------------------------------------------------------------
    0       -296.151476253284     8.937812e-03                     0.400 (TRAH MAcro)   No
WARNING: 1 diagonal Hessian elements are negative!
WARNING : negative HOMO - LUMO gap : -0.001256
WARNING : negative HOMO - LUMO gap : -0.001256
    0     dE    -3.314126e-06     7.909266e-03    -6.6281e-06      0.004 (TRAH MIcro)
    0     dE    -1.773057e-05     4.923131e-03    -3.5454e-05      0.014 (TRAH MIcro)
    0     dE    -2.307007e-05     4.304648e-03    -4.6125e-05      0.018 (TRAH MIcro)
    0     dE    -3.170944e-05     4.367065e-03    -6.3356e-05      0.031 (TRAH MIcro)
    0     dE    -3.467885e-05     3.867177e-03    -6.9267e-05      0.036 (TRAH MIcro)
    0     dE    -3.698993e-05     2.125720e-03    -7.3852e-05      0.042 (TRAH MIcro)
    0     dE    -3.807515e-05     1.597629e-03    -7.6008e-05      0.043 (TRAH MIcro)
    0     dE    -3.878229e-05     1.230578e-03    -7.7414e-05      0.044 (TRAH MIcro)
    0     dE    -3.909778e-05     9.330438e-04    -7.8040e-05      0.045 (TRAH MIcro)
    0     dE    -3.926370e-05     6.585776e-04    -7.8365e-05      0.046 (TRAH MIcro)
    1       -296.151515817699     1.631841e-03                     0.480 (TRAH MAcro)   No
WARNING: 1 diagonal Hessian elements are negative!
WARNING : negative HOMO - LUMO gap : -0.001240
WARNING : negative HOMO - LUMO gap : -0.001240
    1     dE    -1.522302e-07     1.168211e-03    -3.0446e-07      0.001 (TRAH MIcro)
    1     dE    -3.040165e-07     7.829921e-04    -6.0803e-07      0.001 (TRAH MIcro)
    1     dE    -3.768158e-07     4.641555e-04    -7.5363e-07      0.001 (TRAH MIcro)
    1     dE    -4.189518e-07     3.964701e-04    -8.3790e-07      0.001 (TRAH MIcro)
    1     dE    -4.517726e-07     3.126088e-04    -9.0354e-07      0.001 (TRAH MIcro)
    1     dE    -4.718632e-07     1.953734e-04    -9.4372e-07      0.002 (TRAH MIcro)
    1     dE    -4.790914e-07     1.399184e-04    -9.5818e-07      0.002 (TRAH MIcro)
    2       -296.151516297771     1.402921e-04                     0.576 (TRAH MAcro)   No
WARNING: 1 diagonal Hessian elements are negative!
WARNING : negative HOMO - LUMO gap : -0.001292
WARNING : negative HOMO - LUMO gap : -0.001292
    2     dE    -2.348095e-09     9.543376e-05    -4.6962e-09      0.000 (TRAH MIcro)
    2     dE    -2.990808e-09     6.634670e-05    -5.9816e-09      0.000 (TRAH MIcro)
    2     dE    -3.534099e-09     4.508916e-05    -7.0682e-09      0.000 (TRAH MIcro)
    2     dE    -3.751777e-09     3.999650e-05    -7.5036e-09      0.000 (TRAH MIcro)
    2     dE    -3.818042e-09     3.332049e-05    -7.6361e-09      0.000 (TRAH MIcro)
    2     dE    -3.862256e-09     2.625662e-05    -7.7245e-09      0.000 (TRAH MIcro)
    2     dE    -3.916327e-09     2.566840e-05    -7.8327e-09      0.000 (TRAH MIcro)
    2     dE    -3.960996e-09     2.564509e-05    -7.9220e-09      0.000 (TRAH MIcro)
    2     dE    -4.036321e-09     3.201033e-05    -8.0726e-09      0.000 (TRAH MIcro)
    2     dE    -4.210708e-09     3.682377e-05    -8.4214e-09      0.000 (TRAH MIcro)
    2     dE    -4.654382e-09     4.446539e-05    -9.3088e-09      0.000 (TRAH MIcro)
    2     dE    -5.045433e-09     3.444723e-05    -1.0091e-08      0.000 (TRAH MIcro)
    2     dE    -5.253216e-09     1.339579e-05    -1.0506e-08      0.000 (TRAH MIcro)
    3       -296.151516303029     1.342033e-05                           (NR   MAcro)
WARNING: 1 diagonal Hessian elements are negative!
WARNING : negative HOMO - LUMO gap : -0.001293
    3     dE    -2.538507e-11     7.709059e-06                           (NR   MIcro)
    3     dE    -3.229383e-11     4.981519e-06                           (NR   MIcro)
    3     dE    -3.429308e-11     3.416172e-06                           (NR   MIcro)
    3     dE    -3.553207e-11     2.241276e-06                           (NR   MIcro)
    3     dE    -3.596600e-11     1.603606e-06                           (NR   MIcro)
    3     dE    -3.623467e-11     1.035856e-06                           (NR   MIcro)
    3     dE    -3.636054e-11     5.693338e-07                           (NR   MIcro)
    4       -296.151516303066     5.690780e-07                           (NR   MAcro)

               *****************************************************
               *                     SUCCESS                       *
               *           SCF CONVERGED AFTER  95 CYCLES          *
               *****************************************************

Warning: op=0 Small HOMO/LUMO gap (  -0.001) - skipping pre-diagonalization
             **** ENERGY FILE WAS UPDATED (random1_nn2.00.en.tmp) ****

----------------
TOTAL SCF ENERGY
----------------

Total Energy       :       -296.15151630306565 Eh           -8058.69245 eV

Components:
Nuclear Repulsion  :        229.31360061410061 Eh            6239.94031 eV
Electronic Energy  :       -525.46511691716626 Eh          -14298.63276 eV
One Electron Energy:       -846.65077420780437 Eh          -23038.53882 eV
Two Electron Energy:        321.18565729063812 Eh            8739.90606 eV

Virial components:
Potential Energy   :       -587.86354691577526 Eh          -15996.58036 eV
Kinetic Energy     :        291.71203061270955 Eh            7937.88791 eV
Virial Ratio       :          2.01521872677322

DFT components:
N(Alpha)           :       30.000013551811 electrons
N(Beta)            :       30.000013551811 electrons
N(Total)           :       60.000027103622 electrons
E(X)               :      -44.558444268874 Eh       
E(C)               :       -1.751362523891 Eh       
E(XC)              :      -46.309806792765 Eh       

---------------
SCF CONVERGENCE
---------------

  Last Energy change         ...   -3.7005e-11  Tolerance :   1.0000e-08
  Last MAX-Density change    ...    3.5964e-03  Tolerance :   1.0000e-07
  Last RMS-Density change    ...    9.7658e-04  Tolerance :   5.0000e-09
  Last DIIS Error            ...    5.3749e-04  Tolerance :   5.0000e-07
  Last Orbital Gradient      ...    5.6908e-07  Tolerance :   1.0000e-05
  Last Orbital Rotation      ...    1.6926e-05  Tolerance :   1.0000e-05


----------------
ORBITAL ENERGIES
----------------

  NO   OCC          E(Eh)            E(eV) 
   0   2.0000      -6.704092      -182.4276 
   1   2.0000      -6.686534      -181.9498 
   2   2.0000      -6.664800      -181.3584 
   3   2.0000      -6.664236      -181.3431 
   4   2.0000      -6.660946      -181.2536 
   5   2.0000      -6.660525      -181.2421 
   6   2.0000      -6.660118      -181.2310 
   7   2.0000      -6.653273      -181.0448 
   8   2.0000      -6.651592      -180.9990 
   9   2.0000      -6.638255      -180.6361 
  10   2.0000      -6.637525      -180.6162 
  11   2.0000      -6.615352      -180.0129 
  12   2.0000      -0.460925       -12.5424 
  13   2.0000      -0.418971       -11.4008 
  14   2.0000      -0.402041       -10.9401 
  15   2.0000      -0.388465       -10.5707 
  16   2.0000      -0.376248       -10.2382 
  17   2.0000      -0.374677       -10.1955 
  18   2.0000      -0.358694        -9.7606 
  19   2.0000      -0.340180        -9.2568 
  20   2.0000      -0.319552        -8.6955 
  21   2.0000      -0.310167        -8.4401 
  22   2.0000      -0.291081        -7.9207 
  23   2.0000      -0.257392        -7.0040 
  24   2.0000      -0.217722        -5.9245 
  25   2.0000      -0.210098        -5.7171 
  26   2.0000      -0.206560        -5.6208 
  27   2.0000      -0.198902        -5.4124 
  28   2.0000      -0.188798        -5.1375 
  29   2.0000      -0.184325        -5.0157 
  30   0.0000      -0.185618        -5.0509 
  31   0.0000      -0.179248        -4.8776 
  32   0.0000      -0.175926        -4.7872 
  33   0.0000      -0.173189        -4.7127 
  34   0.0000      -0.170063        -4.6276 
  35   0.0000      -0.165254        -4.4968 
  36   0.0000      -0.149143        -4.0584 
  37   0.0000      -0.147508        -4.0139 
  38   0.0000      -0.141474        -3.8497 
  39   0.0000      -0.135754        -3.6941 
  40   0.0000      -0.129227        -3.5165 
*Only the first 10 virtual orbitals were printed.

                    ********************************
                    * MULLIKEN POPULATION ANALYSIS *
                    ********************************

-----------------------
MULLIKEN ATOMIC CHARGES
-----------------------
   0 B :    0.149857
   1 B :    0.022987
   2 B :    0.069135
   3 B :    0.009236
   4 B :    0.055813
   5 B :    0.021120
   6 B :   -0.300676
   7 B :    0.097915
   8 B :    0.025968
   9 B :    0.047786
  10 B :    0.010825
  11 B :   -0.209968
Sum of atomic charges:   -0.0000000

--------------------------------
MULLIKEN REDUCED ORBITAL CHARGES
--------------------------------
  0 B s       :     3.993177  s :     3.993177
      pz      :     0.168199  p :     0.856668
      px      :     0.258026
      py      :     0.430444
      dz2     :     0.000059  d :     0.000298
      dxz     :     0.000065
      dyz     :     0.000067
      dx2y2   :     0.000058
      dxy     :     0.000048

  1 B s       :     3.852567  s :     3.852567
      pz      :     0.145044  p :     1.119103
      px      :     0.480568
      py      :     0.493491
      dz2     :     0.000883  d :     0.005344
      dxz     :     0.000229
      dyz     :     0.000623
      dx2y2   :     0.002737
      dxy     :     0.000872

  2 B s       :     3.888634  s :     3.888634
      pz      :     0.223033  p :     1.036868
      px      :     0.314314
      py      :     0.499520
      dz2     :     0.001002  d :     0.005364
      dxz     :     0.000217
      dyz     :     0.000838
      dx2y2   :     0.002022
      dxy     :     0.001285

  3 B s       :     3.924060  s :     3.924060
      pz      :     0.347050  p :     1.060982
      px      :     0.351547
      py      :     0.362386
      dz2     :     0.001141  d :     0.005721
      dxz     :     0.000723
      dyz     :     0.000783
      dx2y2   :     0.001651
      dxy     :     0.001422

  4 B s       :     3.915452  s :     3.915452
      pz      :     0.326194  p :     1.022642
      px      :     0.487999
      py      :     0.208449
      dz2     :     0.001019  d :     0.006093
      dxz     :     0.001669
      dyz     :     0.000455
      dx2y2   :     0.001648
      dxy     :     0.001302

  5 B s       :     3.808812  s :     3.808812
      pz      :     0.230302  p :     1.159845
      px      :     0.365599
      py      :     0.563944
      dz2     :     0.001304  d :     0.010223
      dxz     :     0.000679
      dyz     :     0.002005
      dx2y2   :     0.003584
      dxy     :     0.002651

  6 B s       :     3.428218  s :     3.428218
      pz      :     0.483212  p :     1.860012
      px      :     0.693255
      py      :     0.683545
      dz2     :     0.001527  d :     0.012445
      dxz     :     0.001468
      dyz     :     0.001192
      dx2y2   :     0.004223
      dxy     :     0.004036

  7 B s       :     3.957511  s :     3.957511
      pz      :     0.168006  p :     0.942709
      px      :     0.574404
      py      :     0.200299
      dz2     :     0.000507  d :     0.001865
      dxz     :     0.000123
      dyz     :     0.000054
      dx2y2   :     0.000950
      dxy     :     0.000230

  8 B s       :     3.827494  s :     3.827494
      pz      :     0.251207  p :     1.138657
      px      :     0.540306
      py      :     0.347145
      dz2     :     0.001550  d :     0.007880
      dxz     :     0.000961
      dyz     :     0.000724
      dx2y2   :     0.002603
      dxy     :     0.002042

  9 B s       :     3.920766  s :     3.920766
      pz      :     0.201252  p :     1.026525
      px      :     0.473050
      py      :     0.352222
      dz2     :     0.000989  d :     0.004923
      dxz     :     0.000583
      dyz     :     0.000236
      dx2y2   :     0.001335
      dxy     :     0.001779

 10 B s       :     3.839894  s :     3.839894
      pz      :     0.225769  p :     1.141757
      px      :     0.475984
      py      :     0.440004
      dz2     :     0.001117  d :     0.007524
      dxz     :     0.000581
      dyz     :     0.000776
      dx2y2   :     0.002396
      dxy     :     0.002653

 11 B s       :     3.629415  s :     3.629415
      pz      :     0.417113  p :     1.573360
      px      :     0.503084
      py      :     0.653163
      dz2     :     0.001613  d :     0.007193
      dxz     :     0.000847
      dyz     :     0.000434
      dx2y2   :     0.003004
      dxy     :     0.001295



                     *******************************
                     * LOEWDIN POPULATION ANALYSIS *
                     *******************************

----------------------
LOEWDIN ATOMIC CHARGES
----------------------
   0 B :    0.154275
   1 B :    0.009843
   2 B :    0.044474
   3 B :    0.030786
   4 B :    0.011291
   5 B :    0.005350
   6 B :   -0.256661
   7 B :    0.093906
   8 B :    0.025622
   9 B :    0.033217
  10 B :    0.006047
  11 B :   -0.158150

-------------------------------
LOEWDIN REDUCED ORBITAL CHARGES
-------------------------------
  0 B s       :     3.981814  s :     3.981814
      pz      :     0.170817  p :     0.863575
      px      :     0.258620
      py      :     0.434138
      dz2     :     0.000068  d :     0.000336
      dxz     :     0.000064
      dyz     :     0.000085
      dx2y2   :     0.000059
      dxy     :     0.000060

  1 B s       :     3.705171  s :     3.705171
      pz      :     0.155891  p :     1.275767
      px      :     0.529269
      py      :     0.590606
      dz2     :     0.001579  d :     0.009219
      dxz     :     0.000314
      dyz     :     0.000968
      dx2y2   :     0.005176
      dxy     :     0.001181

  2 B s       :     3.748036  s :     3.748036
      pz      :     0.240333  p :     1.197194
      px      :     0.341501
      py      :     0.615360
      dz2     :     0.002093  d :     0.010296
      dxz     :     0.000354
      dyz     :     0.001104
      dx2y2   :     0.004332
      dxy     :     0.002413

  3 B s       :     3.767000  s :     3.767000
      pz      :     0.361719  p :     1.194075
      px      :     0.403207
      py      :     0.429149
      dz2     :     0.001519  d :     0.008139
      dxz     :     0.000940
      dyz     :     0.001002
      dx2y2   :     0.002494
      dxy     :     0.002184

  4 B s       :     3.768906  s :     3.768906
      pz      :     0.371997  p :     1.209898
      px      :     0.590267
      py      :     0.247634
      dz2     :     0.001613  d :     0.009905
      dxz     :     0.002300
      dyz     :     0.000819
      dx2y2   :     0.003080
      dxy     :     0.002092

  5 B s       :     3.534726  s :     3.534726
      pz      :     0.263780  p :     1.436484
      px      :     0.435726
      py      :     0.736978
      dz2     :     0.002815  d :     0.023440
      dxz     :     0.001177
      dyz     :     0.004981
      dx2y2   :     0.008490
      dxy     :     0.005977

  6 B s       :     3.131690  s :     3.131690
      pz      :     0.510141  p :     2.093804
      px      :     0.755600
      py      :     0.828063
      dz2     :     0.003499  d :     0.031168
      dxz     :     0.002480
      dyz     :     0.003459
      dx2y2   :     0.012210
      dxy     :     0.009521

  7 B s       :     3.902249  s :     3.902249
      pz      :     0.180324  p :     1.001152
      px      :     0.620014
      py      :     0.200814
      dz2     :     0.000752  d :     0.002693
      dxz     :     0.000137
      dyz     :     0.000047
      dx2y2   :     0.001528
      dxy     :     0.000229

  8 B s       :     3.616705  s :     3.616705
      pz      :     0.273340  p :     1.343135
      px      :     0.651799
      py      :     0.417996
      dz2     :     0.002823  d :     0.014538
      dxz     :     0.001611
      dyz     :     0.000894
      dx2y2   :     0.004935
      dxy     :     0.004275

  9 B s       :     3.797826  s :     3.797826
      pz      :     0.213731  p :     1.161227
      px      :     0.548797
      py      :     0.398700
      dz2     :     0.001460  d :     0.007730
      dxz     :     0.000806
      dyz     :     0.000416
      dx2y2   :     0.001922
      dxy     :     0.003125

 10 B s       :     3.648404  s :     3.648404
      pz      :     0.243140  p :     1.332335
      px      :     0.537240
      py      :     0.551954
      dz2     :     0.002050  d :     0.013214
      dxz     :     0.000888
      dyz     :     0.001016
      dx2y2   :     0.005009
      dxy     :     0.004251

 11 B s       :     3.391660  s :     3.391660
      pz      :     0.434100  p :     1.750763
      px      :     0.562894
      py      :     0.753769
      dz2     :     0.003190  d :     0.015726
      dxz     :     0.001493
      dyz     :     0.000831
      dx2y2   :     0.007733
      dxy     :     0.002480



                      *****************************
                      * MAYER POPULATION ANALYSIS *
                      *****************************

  NA   - Mulliken gross atomic population
  ZA   - Total nuclear charge
  QA   - Mulliken gross atomic charge
  VA   - Mayer's total valence
  BVA  - Mayer's bonded valence
  FA   - Mayer's free valence

  ATOM       NA         ZA         QA         VA         BVA        FA
  0 B      4.8501     5.0000     0.1499     1.3791     1.3791    -0.0000
  1 B      4.9770     5.0000     0.0230     1.9205     1.9205     0.0000
  2 B      4.9309     5.0000     0.0691     1.7582     1.7582    -0.0000
  3 B      4.9908     5.0000     0.0092     1.8448     1.8448    -0.0000
  4 B      4.9442     5.0000     0.0558     1.7226     1.7226     0.0000
  5 B      4.9789     5.0000     0.0211     2.0397     2.0397    -0.0000
  6 B      5.3007     5.0000    -0.3007     3.1154     3.1154    -0.0000
  7 B      4.9021     5.0000     0.0979     1.5265     1.5265    -0.0000
  8 B      4.9740     5.0000     0.0260     2.0254     2.0254     0.0000
  9 B      4.9522     5.0000     0.0478     1.7356     1.7356     0.0000
 10 B      4.9892     5.0000     0.0108     2.0088     2.0088     0.0000
 11 B      5.2100     5.0000    -0.2100     2.7417     2.7417    -0.0000

  Mayer bond orders larger than 0.100000
B(  0-B ,  1-B ) :   0.1023 B(  0-B ,  2-B ) :   0.1336 B(  0-B ,  3-B ) :   0.1225 
B(  0-B ,  4-B ) :   0.1436 B(  0-B ,  7-B ) :   0.1606 B(  0-B ,  8-B ) :   0.1017 
B(  0-B ,  9-B ) :   0.2103 B(  0-B , 10-B ) :   0.1070 B(  0-B , 11-B ) :   0.1459 
B(  1-B ,  2-B ) :   0.1441 B(  1-B ,  4-B ) :   0.2028 B(  1-B ,  5-B ) :   0.1170 
B(  1-B ,  7-B ) :   0.4503 B(  1-B , 11-B ) :   0.5420 B(  2-B ,  3-B ) :   0.1289 
B(  2-B ,  4-B ) :   0.1219 B(  2-B ,  5-B ) :   0.1218 B(  2-B , 11-B ) :   0.7008 
B(  3-B ,  4-B ) :   0.1875 B(  3-B ,  5-B ) :   0.2129 B(  3-B ,  6-B ) :   0.2840 
B(  3-B ,  8-B ) :   0.3120 B(  3-B ,  9-B ) :   0.1640 B(  3-B , 10-B ) :   0.1038 
B(  3-B , 11-B ) :   0.1822 B(  4-B ,  7-B ) :   0.1672 B(  4-B ,  8-B ) :   0.2425 
B(  4-B , 11-B ) :   0.4383 B(  5-B ,  6-B ) :   0.8186 B(  5-B ,  8-B ) :   0.1641 
B(  5-B ,  9-B ) :   0.1764 B(  5-B , 10-B ) :   0.1268 B(  6-B ,  8-B ) :   0.5548 
B(  6-B ,  9-B ) :   0.3484 B(  6-B , 10-B ) :   0.5414 B(  6-B , 11-B ) :   0.2067 
B(  7-B , 10-B ) :   0.1239 B(  7-B , 11-B ) :   0.1812 B(  8-B ,  9-B ) :   0.1190 
B(  8-B , 10-B ) :   0.2402 B(  8-B , 11-B ) :   0.1123 B(  9-B , 10-B ) :   0.4261 


-------
TIMINGS
-------

Total SCF time: 0 days 0 hours 0 min 37 sec 

Total time                  ....      37.105 sec
Sum of individual times     ....      35.320 sec  ( 95.2%)

SCF preparation             ....       0.648 sec  (  1.7%)
Fock matrix formation       ....      27.177 sec  ( 73.2%)
  Startup                   ....       0.047 sec  (  0.2% of F)
  Split-RI-J                ....      10.382 sec  ( 38.2% of F)
  XC integration            ....      15.178 sec  ( 55.8% of F)
    XC Preparation          ....       0.000 sec  (  0.0% of XC)
    Basis function eval.    ....       2.425 sec  ( 16.0% of XC)
    Density eval.           ....       1.493 sec  (  9.8% of XC)
    XC-Functional eval.     ....       0.344 sec  (  2.3% of XC)
    XC-Potential eval.      ....       1.823 sec  ( 12.0% of XC)
Diagonalization             ....       0.000 sec  (  0.0%)
Density matrix formation    ....       1.396 sec  (  3.8%)
Total Energy calculation    ....       0.290 sec  (  0.8%)
Population analysis         ....       0.039 sec  (  0.1%)
Orbital Transformation      ....       0.976 sec  (  2.6%)
Orbital Orthonormalization  ....       0.000 sec  (  0.0%)
DIIS solution               ....       2.443 sec  (  6.6%)
SOSCF solution              ....       2.344 sec  (  6.3%)
NR solution                 ....       0.006 sec  (  0.0%)
Finished LeanSCF after  37.1 sec

Maximum memory used throughout the entire LEANSCF-calculation: 10.7 MB


-------------------------------------------------------------------------------
                          DFT DISPERSION CORRECTION                            
                                                                               
                              DFTD3 V3.1  Rev 1                                
                          USING Becke-Johnson damping                          
-------------------------------------------------------------------------------
The BP86 functional is recognized
Active option DFTDOPT                   ...         4   

molecular C6(AA) [au] = 14530.831219 


            DFT-D V3
 parameters
 s6 scaling factor         :     1.0000 
 a1 scaling factor         :     0.3946 
 s8 scaling factor         :     3.2822 
 a2 scaling factor         :     4.8516 
 ad hoc parameters k1-k3   :    16.0000     1.3333    -4.0000 

 Edisp/kcal,au: -41.969563120639  -0.066882748992 
 E6   /kcal   : -12.353461772 
 E8   /kcal   : -29.616101349 
 % E8         :  70.565665084 

-------------------------   ----------------
Dispersion correction           -0.066882749
-------------------------   ----------------


-------------------------   --------------------
FINAL SINGLE POINT ENERGY      -296.218399052057
-------------------------   --------------------



           ************************************************************
           *        Program running with 8 parallel MPI-processes     *
           *              working on a common directory               *
           ************************************************************
------------------------------------------------------------------------------
                         ORCA SCF GRADIENT CALCULATION
------------------------------------------------------------------------------

Nuc. rep. gradient        (SHARK) ... done (  0.0 sec)
HCore & Overlap gradient  (SHARK) ... done (  0.0 sec)
Split-RIJ-J gradient      (SHARK) ... done (  0.3 sec)
XC gradient                       ... done (  0.7 sec)
Dispersion correction             ... done (  0.1 sec)

-------------------
DISPERSION GRADIENT
-------------------

   1   B   :    0.002187740   -0.001003194   -0.000998907
   2   B   :   -0.000485250    0.000784369   -0.001780526
   3   B   :   -0.000325754   -0.001098104   -0.001419181
   4   B   :   -0.000889851   -0.000935290    0.001067766
   5   B   :   -0.001451303    0.000171069   -0.000759792
   6   B   :   -0.000935591    0.002676449    0.000163239
   7   B   :    0.000978433   -0.003205285    0.003186951
   8   B   :    0.000813231    0.001485924   -0.001607618
   9   B   :   -0.000623352    0.000298813    0.001406616
  10   B   :    0.001145842    0.000706231    0.001188287
  11   B   :    0.000759723    0.001171237    0.001346088
  12   B   :   -0.001173868   -0.001052220   -0.001792922

Difference to translation invariance:
           :   -0.0000000000    0.0000000000    0.0000000000

Difference to rotation invariance:
           :   -0.0000000000   -0.0000000000    0.0000000000

Norm of the Dispersion gradient    ...    0.0083489350
RMS gradient                       ...    0.0013914892
MAX gradient                       ...    0.0032052846

------------------
CARTESIAN GRADIENT
------------------

   1   B   :    0.012140266   -0.006070204   -0.008262380
   2   B   :   -0.025482415    0.037704723   -0.015313153
   3   B   :    0.008827411   -0.050445863   -0.006920807
   4   B   :   -0.020842788   -0.029478562    0.010833293
   5   B   :   -0.035472791    0.004039945   -0.005027937
   6   B   :    0.023960733   -0.049119148    0.026800801
   7   B   :    0.011819244   -0.003629495   -0.009909219
   8   B   :    0.027203675    0.009329200   -0.011247871
   9   B   :   -0.042779365    0.034779078    0.030596846
  10   B   :    0.032265191   -0.004267365    0.018188318
  11   B   :   -0.003253539    0.057939050   -0.004060592
  12   B   :    0.011614378   -0.000781360   -0.025677297

Difference to translation invariance:
           :   -0.0000000000    0.0000000000    0.0000000000

Difference to rotation invariance:
           :    0.0000255052    0.0001507485   -0.0000027362

Norm of the Cartesian gradient     ...    0.1496788366
RMS gradient                       ...    0.0249464728
MAX gradient                       ...    0.0579390504

-------
TIMINGS
-------

Total SCF gradient time     ....        1.154 sec

Densities                   ....       0.001 sec  (  0.1%)
One electron gradient       ....       0.041 sec  (  3.5%)
RI-J Coulomb gradient       ....       0.338 sec  ( 29.3%)
XC gradient                 ....       0.713 sec  ( 61.8%)

Maximum memory used throughout the entire SCFGRAD-calculation: 29.3 MB
------------------------------------------------------------------------------
                         ORCA GEOMETRY RELAXATION STEP
------------------------------------------------------------------------------

Reading the OPT-File                    .... done
Getting information on internals        .... done
Copying old internal coords+grads       .... done
Making the new internal coordinates     .... (2022 redundants) done
Validating the new internal coordinates .... (2022 redundants) done
Calculating the B-matrix                .... done
Calculating the G,G- and P matrices     .... done
Transforming gradient to internals      .... done
Projecting the internal gradient        .... done
Number of atoms                         ....  12
Number of internal coordinates          .... 146
Current Energy                          ....  -296.218399052 Eh
Current gradient norm                   ....     0.149678837 Eh/bohr
Maximum allowed component of the step   ....  0.300
Current trust radius                    ....  0.300
Evaluating the initial hessian          ....  (Almloef) done
Projecting the Hessian                  .... done
Forming the augmented Hessian           .... done
Diagonalizing the augmented Hessian     .... done
Last element of RFO vector              ....  0.741205663
Lowest eigenvalues of augmented Hessian:
 -0.123405225  0.010019750  0.010766006  0.011093340  0.011417470
Length of the computed step             ....  0.905656882
Warning: the length of the step is outside the trust region - taking restricted step instead
The input lambda is                     ....     0.009000
   iter:   5  x=   -0.005445  g=12584.535346 f(x)=    74.820773
   iter:  10  x=   -0.137431  g=   27.064290 f(x)=     1.375098
   iter:  15  x=   -0.426717  g=    0.417101 f(x)=     0.003599
The output lambda is                    ....    -0.426975 (19 iterations)
The final length of the internal step   ....  0.300000000
Converting the step to Cartesian space:
 Initial RMS(Int)=    0.0248281767
Transforming coordinates:
 Iter   0:  RMS(Cart)=    0.0899241292 RMS(Int)=    0.0246965689
 Iter   5:  RMS(Cart)=    0.0000000065 RMS(Int)=    0.0000000027
done
Storing new coordinates                 .... done

                                .--------------------.
          ----------------------|Geometry convergence|-------------------------
          Item                value                   Tolerance       Converged
          ---------------------------------------------------------------------
          RMS gradient        0.0114293158            0.0001000000      NO
          MAX gradient        0.0499082941            0.0003000000      NO
          RMS step            0.0248281767            0.0020000000      NO
          MAX step            0.1107571887            0.0040000000      NO
          -------------------------------------------------------------------------
[...]
      pz      :     0.493214  p :     1.814122
      px      :     0.651692
      py      :     0.669215
      dz2     :     0.008617  d :     0.053013
      dxz     :     0.011177
      dyz     :     0.009762
      dx2y2   :     0.011499
      dxy     :     0.011959

  9 B s       :     3.174203  s :     3.174203
      pz      :     0.679723  p :     2.044694
      px      :     0.616333
      py      :     0.748638
      dz2     :     0.015599  d :     0.060982
      dxz     :     0.014174
      dyz     :     0.012459
      dx2y2   :     0.012172
      dxy     :     0.006578

 10 B s       :     2.560022  s :     2.560022
      pz      :     0.729591  p :     2.081086
      px      :     0.761849
      py      :     0.589646
      dz2     :     0.012131  d :     0.062165
      dxz     :     0.012511
      dyz     :     0.010368
      dx2y2   :     0.012115
      dxy     :     0.015040

 11 B s       :     2.560848  s :     2.560848
      pz      :     0.585289  p :     2.082356
      px      :     0.730005
      py      :     0.767062
      dz2     :     0.013543  d :     0.062097
      dxz     :     0.009987
      dyz     :     0.014126
      dx2y2   :     0.011907
      dxy     :     0.012534



                     *******************************
                     * LOEWDIN POPULATION ANALYSIS *
                     *******************************

----------------------
LOEWDIN ATOMIC CHARGES
----------------------
   0 B :    0.036434
   1 B :    0.036773
   2 B :   -0.074312
   3 B :    0.037450
   4 B :   -0.074551
   5 B :    0.037600
   6 B :    0.036632
   7 B :   -0.074401
   8 B :    0.036807
   9 B :   -0.074223
  10 B :    0.037611
  11 B :    0.038179

-------------------------------
LOEWDIN REDUCED ORBITAL CHARGES
-------------------------------
  0 B s       :     2.741450  s :     2.741450
      pz      :     0.531769  p :     2.092508
      px      :     0.863231
      py      :     0.697508
      dz2     :     0.018009  d :     0.129608
      dxz     :     0.036546
      dyz     :     0.015349
      dx2y2   :     0.025679
      dxy     :     0.034025

  1 B s       :     2.741984  s :     2.741984
      pz      :     0.709911  p :     2.091894
      px      :     0.749029
      py      :     0.632954
      dz2     :     0.029484  d :     0.129349
      dxz     :     0.026387
      dyz     :     0.023884
      dx2y2   :     0.026099
      dxy     :     0.023495

  2 B s       :     2.669937  s :     2.669937
      pz      :     0.745397  p :     2.260914
      px      :     0.824390
      py      :     0.691127
      dz2     :     0.022534  d :     0.143461
      dxz     :     0.026773
      dyz     :     0.027887
      dx2y2   :     0.031453
      dxy     :     0.034814

  3 B s       :     2.654261  s :     2.654261
      pz      :     0.774532  p :     2.150371
      px      :     0.739040
      py      :     0.636798
      dz2     :     0.035921  d :     0.157918
      dxz     :     0.038152
      dyz     :     0.029566
      dx2y2   :     0.029512
      dxy     :     0.024768

  4 B s       :     2.669989  s :     2.669989
      pz      :     0.785865  p :     2.261167
      px      :     0.618714
      py      :     0.856587
      dz2     :     0.017639  d :     0.143396
      dxz     :     0.040597
      dyz     :     0.014496
      dx2y2   :     0.028374
      dxy     :     0.042290

  5 B s       :     2.654400  s :     2.654400
      pz      :     0.782157  p :     2.150143
      px      :     0.512121
      py      :     0.855865
      dz2     :     0.027969  d :     0.157857
      dxz     :     0.031012
      dyz     :     0.037374
      dx2y2   :     0.025564
      dxy     :     0.035938

  6 B s       :     2.741556  s :     2.741556
      pz      :     0.678765  p :     2.092214
      px      :     0.753336
      py      :     0.660112
      dz2     :     0.018800  d :     0.129598
      dxz     :     0.027718
      dyz     :     0.023995
      dx2y2   :     0.035714
      dxy     :     0.023372

  7 B s       :     2.670074  s :     2.670074
      pz      :     0.880068  p :     2.260909
      px      :     0.683016
      py      :     0.697825
      dz2     :     0.025780  d :     0.143418
      dxz     :     0.028630
      dyz     :     0.031818
      dx2y2   :     0.037431
      dxy     :     0.019760

  8 B s       :     2.742024  s :     2.742024
      pz      :     0.541917  p :     2.091797
      px      :     0.807407
      py      :     0.742472
      dz2     :     0.023083  d :     0.129372
      dxz     :     0.024272
      dyz     :     0.025187
      dx2y2   :     0.029495
      dxy     :     0.027335

  9 B s       :     2.669936  s :     2.669936
      pz      :     0.764108  p :     2.260859
      px      :     0.699594
      py      :     0.797157
      dz2     :     0.039080  d :     0.143428
      dxz     :     0.029229
      dyz     :     0.030770
      dx2y2   :     0.026790
      dxy     :     0.017559

 10 B s       :     2.654554  s :     2.654554
      pz      :     0.703383  p :     2.150064
      px      :     0.911772
      py      :     0.534909
      dz2     :     0.032060  d :     0.157771
      dxz     :     0.033955
      dyz     :     0.022374
      dx2y2   :     0.033592
      dxy     :     0.035791

 11 B s       :     2.654912  s :     2.654912
      pz      :     0.548970  p :     2.149383
      px      :     0.771190
      py      :     0.829224
      dz2     :     0.028474  d :     0.157525
      dxz     :     0.025125
      dyz     :     0.033662
      dx2y2   :     0.030456
      dxy     :     0.039808



                      *****************************
                      * MAYER POPULATION ANALYSIS *
                      *****************************

  NA   - Mulliken gross atomic population
  ZA   - Total nuclear charge
  QA   - Mulliken gross atomic charge
  VA   - Mayer's total valence
  BVA  - Mayer's bonded valence
  FA   - Mayer's free valence

  ATOM       NA         ZA         QA         VA         BVA        FA
  0 B      5.0176     5.0000    -0.0176     3.7001     3.7001    -0.0000
  1 B      5.0164     5.0000    -0.0164     3.6988     3.6988    -0.0000
  2 B      5.2794     5.0000    -0.2794     4.0746     4.0746    -0.0000
  3 B      4.7018     5.0000     0.2982     3.3660     3.3660     0.0000
  4 B      5.2785     5.0000    -0.2785     4.0760     4.0760    -0.0000
  5 B      4.7026     5.0000     0.2974     3.3664     3.3664     0.0000
  6 B      5.0178     5.0000    -0.0178     3.6990     3.6990    -0.0000
  7 B      5.2796     5.0000    -0.2796     4.0729     4.0729    -0.0000
  8 B      5.0179     5.0000    -0.0179     3.6986     3.6986    -0.0000
  9 B      5.2799     5.0000    -0.2799     4.0745     4.0745    -0.0000
 10 B      4.7033     5.0000     0.2967     3.3674     3.3674    -0.0000
 11 B      4.7053     5.0000     0.2947     3.3700     3.3700    -0.0000

  Mayer bond orders larger than 0.100000
B(  0-B ,  1-B ) :   0.1477 B(  0-B ,  2-B ) :   1.3666 B(  0-B ,  3-B ) :   0.3200 
B(  0-B ,  4-B ) :   0.2069 B(  0-B ,  5-B ) :   0.9900 B(  0-B ,  6-B ) :   0.1480 
B(  0-B ,  8-B ) :   0.1107 B(  0-B , 11-B ) :   0.3199 B(  1-B ,  5-B ) :   0.3203 
B(  1-B ,  6-B ) :   0.1108 B(  1-B ,  7-B ) :   1.3656 B(  1-B ,  8-B ) :   0.1463 
B(  1-B ,  9-B ) :   0.2063 B(  1-B , 10-B ) :   0.3199 B(  1-B , 11-B ) :   0.9908 
B(  2-B ,  3-B ) :   0.6462 B(  2-B ,  4-B ) :   0.8988 B(  2-B ,  8-B ) :   0.2063 
B(  2-B , 11-B ) :   0.6465 B(  3-B ,  4-B ) :   0.6455 B(  3-B ,  5-B ) :   0.1353 
B(  3-B ,  6-B ) :   0.9894 B(  3-B ,  8-B ) :   0.3194 B(  3-B , 10-B ) :   0.1348 
B(  3-B , 11-B ) :   0.1398 B(  4-B ,  8-B ) :   1.3670 B(  4-B , 11-B ) :   0.6476 
B(  5-B ,  6-B ) :   0.3194 B(  5-B ,  7-B ) :   0.6453 B(  5-B ,  9-B ) :   0.6456 
B(  5-B , 10-B ) :   0.1400 B(  5-B , 11-B ) :   0.1346 B(  6-B ,  7-B ) :   0.2063 
B(  6-B ,  8-B ) :   0.1484 B(  6-B ,  9-B ) :   1.3662 B(  6-B , 10-B ) :   0.3199 
B(  7-B ,  9-B ) :   0.9011 B(  7-B , 10-B ) :   0.6457 B(  8-B , 10-B ) :   0.9903 
B(  8-B , 11-B ) :   0.3201 B(  9-B , 10-B ) :   0.6456 B( 10-B , 11-B ) :   0.1355 


-------
TIMINGS
-------

Total SCF time: 0 days 0 hours 0 min 4 sec 

Total time                  ....       4.998 sec
Sum of individual times     ....       4.462 sec  ( 89.3%)

SCF preparation             ....       0.710 sec  ( 14.2%)
Fock matrix formation       ....       3.103 sec  ( 62.1%)
  Startup                   ....       0.026 sec  (  0.8% of F)
  Split-RI-J                ....       1.192 sec  ( 38.4% of F)
  XC integration            ....       2.095 sec  ( 67.5% of F)
    XC Preparation          ....       0.000 sec  (  0.0% of XC)
    Basis function eval.    ....       0.387 sec  ( 18.5% of XC)
    Density eval.           ....       0.299 sec  ( 14.3% of XC)
    XC-Functional eval.     ....       0.047 sec  (  2.2% of XC)
    XC-Potential eval.      ....       0.375 sec  ( 17.9% of XC)
Diagonalization             ....       0.000 sec  (  0.0%)
Density matrix formation    ....       0.102 sec  (  2.0%)
Total Energy calculation    ....       0.057 sec  (  1.1%)
Population analysis         ....       0.226 sec  (  4.5%)
Orbital Transformation      ....       0.016 sec  (  0.3%)
Orbital Orthonormalization  ....       0.000 sec  (  0.0%)
DIIS solution               ....       0.061 sec  (  1.2%)
SOSCF solution              ....       0.188 sec  (  3.8%)
Finished LeanSCF after   5.3 sec

Maximum memory used throughout the entire LEANSCF-calculation: 15.0 MB


-------------------------------------------------------------------------------
                          DFT DISPERSION CORRECTION                            
                                                                               
                              DFTD3 V3.1  Rev 1                                
                          USING Becke-Johnson damping                          
-------------------------------------------------------------------------------
The BP86 functional is recognized
Active option DFTDOPT                   ...         4   

molecular C6(AA) [au] = 4201.516155 


            DFT-D V3
 parameters
 s6 scaling factor         :     1.0000 
 a1 scaling factor         :     0.3946 
 s8 scaling factor         :     3.2822 
 a2 scaling factor         :     4.8516 
 ad hoc parameters k1-k3   :    16.0000     1.3333    -4.0000 

 Edisp/kcal,au: -23.563722583415  -0.037551178179 
 E6   /kcal   :  -6.715299800 
 E8   /kcal   : -16.848422783 
 % E8         :  71.501532593 

-------------------------   ----------------
Dispersion correction           -0.037551178
-------------------------   ----------------


-------------------------   --------------------
FINAL SINGLE POINT ENERGY      -297.686251735973
-------------------------   --------------------

                                *** OPTIMIZATION RUN DONE ***



           ************************************************************
           *        Program running with 8 parallel MPI-processes     *
           *              working on a common directory               *
           ************************************************************

------------------------------------------------------------------------------
                              ORCA PROPERTY CALCULATIONS
------------------------------------------------------------------------------

GBWName                                 ... random1_nn2.00.gbw
Number of atoms                         ...     12
Number of basis functions               ...    168
Max core memory                         ...   2500 MB

Electric properties:
Dipole moment                           ... YES
Quadrupole moment                       ...  NO
Static polarizability (Dipole/Dipole)   ...  NO
Static polarizability (Dipole/Quad.)    ...  NO
Static polarizability (Quad./Quad.)     ...  NO
Static polarizability (Velocity)        ...  NO
Static hyperpolarizability              ...  NO

Atomic electric properties:
Dipole moment                           ...  NO
Quadrupole moment                       ...  NO
Static polarizability                   ...  NO

Choice of electric origin               ... Center of mass
Position of electric origin             ...    -0.000000    -0.000000     0.000000

General magnetic properties:
Magnetizability                         ...  NO

EPR properties:
g-Tensor (aka g-matrix)                 ...  NO
Zero-Field splitting spin-orbit         ...  NO
Zero-field splitting spin-spin          ...  NO
Hyperfine couplings                     ...  NO (   0 nuclei)
Quadrupole couplings                    ...  NO (   0 nuclei)
Contact density                         ...  NO (   0 nuclei)

NMR properties:
Chemical shifts                         ...  NO (   0 nuclei)
Spin-rotation constants                 ...  NO (   0 nuclei)
Spin-spin couplings                     ...  NO (   0 nuclei,    0 pairs)

Choice of magnetic origin               ... GIAO
Position of magnetic origin             ...     0.000000     0.000000     0.000000

Properties with geometric perturbations:
SCF Hessian                             ...  NO
IR spectrum                             ...  NO
VCD spectrum                            ...  NO
X-ray spectroscopy properties:
SCF XES/XAS/RIXS spectra                ...  NO

SCF SOC stabilization energy            ...  NO
Diagonal Born-Oppenheimer correction    ...  NO

-------------
DIPOLE MOMENT
-------------

Method             : SCF
Type of density    : Electron Density
Multiplicity       :   1
Irrep              :   0
Energy             :  -297.6487005577938589 Eh
Basis              : AO
                                X                 Y                 Z
Electronic contribution:      0.000268262      -0.000424827       0.000110063
Nuclear contribution   :     -0.000000000      -0.000000000       0.000000000
                        -----------------------------------------
Total Dipole Moment    :      0.000268262      -0.000424827       0.000110063
                        -----------------------------------------
Magnitude (a.u.)       :      0.000514350
Magnitude (Debye)      :      0.001307375



--------------------
Rotational spectrum 
--------------------
 
Rotational constants in cm-1:             0.089731             0.053065             0.053046 
Rotational constants in MHz :          2690.059774          1590.844704          1590.287864 

Dipole components along the rotational axes: 
x,y,z [a.u.] :     0.000015    -0.000015    -0.000514 
x,y,z [Debye]:     0.000038    -0.000039    -0.001306 

 

Dipole moment calculation done in   0.1 sec 

Maximum memory used throughout the entire PROP-calculation: 11.4 MB

--------------------------------
SUGGESTED CITATIONS FOR THIS RUN
--------------------------------

Below you find a list of papers that are relevant to this ORCA run
We neither can nor want to force you to cite these papers, but we appreciate if you do
You receive ORCA, which is the product of decades of hard work by many enthusiastic individuals, for free
The only thing we kindly ask in return is that you cite our papers,
We deeply appreciate it, if you show your appreciation for ORCA by not just citing the generic ORCA reference.

Please note that relegating all ORCA citations to the supporting information does *not* help us.
SI sections are not indexed - citations you put there will not count into any citation statistics
But we need these citations in order to attract the funding resources that allow us to do what we are doing

Therefore, if you are a happy ORCA user, please consider citing a few of the papers listed below in the main body of your paper

In addition to the list printed below, the program has created the file random1_nn2.00.bibtex that contains the list in bibtex format
You can import this file easily into all common literature databanks and citation aid programs

It goes without saying that in many instances, there are alternative algorithms to achieve similar
results as the ones you have gotten from ORCA. It is, of course, also the case that in some instances
ORCA just re-implements algorithms worked out by others. We are fully aware of that and we are also
fully appreciative of our colleagues work. Hence this citation list should not be read as indicating
that the listed papers, which are focused on our own work, are the only ones worth citing. It simply
meant to make it easier for users to cite ORCA specific papers. It is not a substitute for doing your
own literature research and citing the relevant literature in a scientifically appropriate manner.

List of essential papers. We consider these as the minimum necessary citations

  1. Neese, F.
     Software update: the ORCA program system, version 6.0
     WIRES Comput. Molec. Sci. 2025 15(1), e70019
     doi.org/10.1002/wcms.70019

List of papers to cite with high priority. The work reported in these papers was absolutely
necessary for this run to complete.
Our perspective: the developers of density functionals and basis sets usually get cited in chemistry papers
Good! But without the algorithms to do something with them, the functionals or basis sets would not do anything.
Hence, in our opinion, the algorithm design and method developments papers are equally worthy of getting cited

  1. Neese, F.
     An improvement of the resolution of the identity approximation for the formation of the Coulomb matrix
     J. Comp. Chem. 2003 24(14), 1740-1747
     doi.org/10.1002/jcc.10318
  2. Grimme, S.; Antony, J.; Ehrlich, S.; Krieg, H.
     A consistent and accurate ab initio parametrization of density functional dispersion correction (DFT-D) for the 94 elements H-Pu
     J. Chem. Phys. 2010 132 , 154104
     doi.org/10.1063/1.3382344
  3. Grimme, S.; Ehrlich, S.; Goerigk, L.
     Effect of the damping function in dispersion corrected density functional theory
     J. Comput. Chem. 2011 32(7), 1456-1465
     doi.org/10.1002/jcc.21759
  4. Helmich-Paris, B.
     A trust-region augmented Hessian implementation for restricted and unrestricted Hartree–Fock and Kohn–Sham methods
     J. Chem. Phys. 2021 154 , 164104
     doi.org/10.1063/5.0040798
  5. Neese, F.
     The SHARK Integral Generation and Digestion System
     J. Comp. Chem. 2022 44(3), 381
     doi.org/10.1002/jcc.26942

List of suggested additional citations. These are papers that are important in the 'surrounding' of 
of this run, or papers that preceded the highly important papers. If you like your results we are grateful for a citation.

  1. Neese, F.
     The ORCA program system
     WIRES Comput. Molec. Sci. 2012 2(1), 73-78
     doi.org/10.1002/wcms.81
  2. Neese, F.
     Software update: the ORCA program system, version 4.0
     WIRES Comput. Molec. Sci. 2018 8(1), 1-6
     doi.org/10.1002/wcms.1327
  3. Neese, F.; Wennmohs, F.; Becker, U.; Riplinger, C.
     The ORCA quantum chemistry program package
     J. Chem. Phys. 2020 152(22), 224108
     doi.org/10.1063/5.0004608
  4. Neese, F.
     Software update: The ORCA program system—Version 5.0
     WIRES Comput. Molec. Sci. 2022 12(1), e1606
     doi.org/10.1002/wcms.1606

List of optional additional citations

  1. Neese, F.
     Approximate second-order SCF convergence for spin unrestricted wavefunctions
     Chem. Phys. Lett. 2000 325(1-3), 93-98
     doi.org/10.1016/s0009-2614(00)00662-x

Timings for individual modules:

Sum of individual times          ...     1405.912 sec (=  23.432 min)
Startup calculation              ...      149.198 sec (=   2.487 min)  10.6 %
SCF iterations                   ...     1037.652 sec (=  17.294 min)  73.8 %
Property calculations            ...        0.826 sec (=   0.014 min)   0.1 %
SCF Gradient evaluation          ...      217.244 sec (=   3.621 min)  15.5 %
Geometry relaxation              ...        0.992 sec (=   0.017 min)   0.1 %
                             ****ORCA TERMINATED NORMALLY****
TOTAL RUN TIME: 0 days 0 hours 24 minutes 39 seconds 156 msec
