
                                 *****************
                                 * O   R   C   A *
                                 *****************

                                            #,                                       
                                            ###                                      
                                            ####                                     
                                            #####                                    
                                            ######                                   
                                           ########,                                 
                                     ,,################,,,,,                         
                               ,,#################################,,                 
                          ,,##########################################,,             
                       ,#########################################, ''#####,          
                    ,#############################################,,   '####,        
                  ,##################################################,,,,####,       
                ,###########''''           ''''###############################       
              ,#####''   ,,,,##########,,,,          '''####'''          '####       
            ,##' ,,,,###########################,,,                        '##       
           ' ,,###''''                  '''############,,,                           
         ,,##''                                '''############,,,,        ,,,,,,###''
      ,#''                                            '''#######################'''  
     '                                                          ''''####''''         
             ,#######,   #######,   ,#######,      ##                                
            ,#'     '#,  ##    ##  ,#'     '#,    #''#        ,####,    ,#,          
            ##       ##  ##   ,#'  ##            #'  '#       #'       ,# #          
            ##       ##  #######   ##           ,######,      #####,      #          
            '#,     ,#'  ##    ##  '#,     ,#' ,#      #,     #,   #      #          
             '#######'   ##     ##  '#######'  #'      '#     '####' #    #          



                #########################################################
                #                        -***-                          #
                #          Department of theory and spectroscopy        #
                #                                                       #
                #                      Frank Neese                      #
                #                                                       #
                #     Directorship, Architecture, Infrastructure        #
                #                    SHARK, DRIVERS                     #
                #        Core code/Algorithms in most modules           #
                #                                                       #
                #        Max Planck Institute fuer Kohlenforschung      #
                #                Kaiser Wilhelm Platz 1                 #
                #                 D-45470 Muelheim/Ruhr                 #
                #                      Germany                          #
                #                                                       #
                #                  All rights reserved                  #
                #                        -***-                          #
                #########################################################


                         Program Version 6.1.1  -  RELEASE   -
                                (GIT: $487d211c$)
                          ($2025-11-21 10:33:24 +0100$)
                                                                         
                                  - NO-DMRG VERSION -                    
                                                                         


 With contributions from (in alphabetic order):
[Max-Planck-Institut fuer Kohlenforschung]                               
  Daniel Aravena         : Magnetic Suceptibility                        
  Michael Atanasov       : Ab Initio Ligand Field Theory (pilot matlab implementation)
  Alexander A. Auer      : GIAO ZORA, VPT2 properties, NMR spectrum      
  Ute Becker             : All parallelization in ORCA, NUMFREQ, NUMCALC 
  Giovanni Bistoni       : ED, misc. LED, open-shell LED, HFLD           
  Dmytro Bykov           : pre 5.0 version of the SCF Hessian            
  Marcos Casanova-Páez   : Triplet and SCS-CIS(D). UHF-(DLPNO)-IP/EA/STEOM-CCSD. UHF-CVS-IP/STEOM-CCSD   
  Vijay G. Chilkuri      : MRCI spin determinant printing, contributions to CSF-ICE 
  Pauline Colinet        : FMM embedding                                 
  Dipayan Datta          : RHF DLPNO-CCSD density                        
  Achintya Kumar Dutta   : EOM-CC, STEOM-CC                              
  Nicolas Foglia         : Exact transition moments, OPA infrastructure, MCD improvements    
  Dmitry Ganyushin       : Spin-Orbit,Spin-Spin,Magnetic field MRCI      
  Miquel Garcia-Rates    : C-PCM and meta-GGA Hessian, CCSD/C-PCM, Gaussian charge scheme 
  Tiago L. C. Gouveia    : GS-ROHF, GS-ROCIS                             
  Yang Guo               : DLPNO-NEVPT2, F12-NEVPT2, CIM, IAO-localization        
  Andreas Hansen         : Spin unrestricted coupled pair/coupled cluster methods 
  Ingolf Harden          : AUTO-CI MPn and infrastructure                
  Benjamin Helmich-Paris : MC-RPA, TRAH-(SCF,CASSCF), AVAS, COSX integrals, SCF dyn. polar., MC-PDFT, srDFT 
  Lee Huntington         : MR-EOM, pCC                                   
  Robert Izsak           : Overlap fitted RIJCOSX, COSX-SCS-MP3, EOM     
  Riya Kayal             : Wick's Theorem for AUTO-CI, AUTO-CI UHF-CCSDT 
  Emily Kempfer          : AUTO-CI RHF CISDT and CCSDT, approximate NEVPT4
  Christian Kollmar      : KDIIS, OOCD, Brueckner-CCSD(T), CCSD density, CASPT2, CASPT2-K, improved NEVPT2 
  Axel Koslowski         : Symmetry handling                             
  Simone Kossmann        : meta-GGA functionals, TD-DFT gradient, OOMP2, (MP2 Hessian; deprecated post 5.0) 
  Lucas Lang             : DCDCAS, Hyperfine gauge corrections, ICE-SOC+SSC
  Marvin Lechner         : AUTO-CI (C++ implementation), FIC-MRCC        
  Spencer Leger          : CASSCF response                               
  Dagmar Lenk            : GEPOL surface, SMD, ORCA-2-JSON               
  Dimitrios Liakos       : Extrapolation schemes; Compound Job, Property file
  Dimitrios Manganas     : Further ROCIS development; embedding schemes. LFT, Crystal Embedding 
  Dimitrios Pantazis     : SARC Basis sets                               
  Anastasios Papadopoulos: AUTO-CI, single reference methods and gradients 
  Taras Petrenko         : pre 6.0 DFT Hessian and TD-DFT gradient,  ECA, NRVS 
  Petra Pikulova         : Analytic Raman intensities                    
  Peter Pinski           : DLPNO-MP2, DLPNO-MP2 Gradient                 
  Shashank Vittal Rao    : ES-AILFT, MagRelax                            
  Christoph Reimann      : Effective Core Potentials                     
  Marius Retegan         : Local ZFS, SOC                                
  Christoph Riplinger    : Optimizer, TS searches, QM/MM, DLPNO-CCSD(T), (RO)-DLPNO pert. Triples 
  Michael Roemelt        : Original ROCIS implementation, recursive CI coupling coefficients
  Masaaki Saitow         : Open-shell DLPNO-CCSD energy and density      
  Barbara Sandhoefer     : DKH picture change effects                    
  Yorick L. A. Schmerwitz: GMF and freeze-and-release deltaSCF, NEB S-IDPP initial path                    
  Kantharuban Sivalingam : CASSCF convergence/infrastructure, NEVPT2, NEVPT3, NEVPT4(SD), FIC-MRCI and CEPA variants
  Bernardo de Souza      : ESD, SOC TD-DFT                               
  Georgi L. Stoychev     : AutoAux, RI-MP2 NMR, DLPNO-MP2 response, X2C  
  Van Anh Tran           : RI-MP2 g-tensors                              
  Willem Van den Heuvel  : Paramagnetic NMR                              
  Zikuan Wang            : NOTCH, Electric field optimization            
  Frank Wennmohs         : Technical directorship and infrastructure     
  Hang Xu                : AUTO-CI-Response properties                   
                                                                         
[FACCTs GmbH]                                                            
  Markus Bursch, Nicolas Foglia, Miquel Garcia-Rates, Ingolf Harden, Hagen Neugebauer, Anastasios Papadopoulos, 
  Christoph Riplinger, Bernardo de Souza, Georgi L. Stoychev                                                    
                                                                 
  APM, various basis sets, CI-OPT, improved COSX, DLPNO-Multilevel,           
  DOCKER, DRACO, updates on ESD, Fragmentator, GOAT, IRC, LR-CPCM, L-BFGS, MBIS, meta-GGA TD-DFT gradient, ML-optimized integration grids, 
  MM, NACMEs, nearIR, NEB, NEB-TS, NL-DFT gradient (VV10), 2- and 3-layer-ONIOM, interface openCOSMO-RS, QMMM,   
  Crystal-QMMM, RESP, rigid body optimization, SF, symmetry and pop. for TD-DFT, various functionals, SOLVATOR                                   
                                                                         
[Other institutions]                                                     
  V. Asgeirsson          : NEB                                           
  Christoph Bannwarth    : sTDA-DFT, sTD-DFT, PBEh-3c, B97-3c, D3        
  Giovanni Bistoni       : ETS/NOCV, ADLD/ADEX, COVALED                  
  Martin Brehm           : Molecular dynamics                            
  Ronald Cardenas        : ETS/NOCV                                      
  Martina Colucci        : COVALED                                       
  Sebastian Ehlert       : rSCAN, r2SCAN, r2SCAN-3c, D4, dhf basis sets  
  Marvin Friede          : D4 for Fr, Ra, Ac-Lr                          
  Lars Goerigk           : TD-DFT with DH, B97 family of functionals     
  Stefan Grimme          : VdW corrections, initial TS optimization, DFT functionals, gCP, sTDA/sTD-DF 
  Waldemar Hujo          : DFT-NL                                        
  H. Jonsson             : NEB                                           
  Holger Kruse           : gCP                                           
  Marcel Mueller         : wB97X-3c, vDZP basis set                      
  Hagen Neugebauer       : wr2SCAN, Native XTB                           
  Gianluca Regni         : ADLD/ADEX                                     
  Tobias Risthaus        : pre 6.0 range-separated hybrid DFT and stability analysis
  Lukas Wittmann         : regularized MP2, r2SCAN double-hybrids, wr2SCAN        
                                                                         
We gratefully acknowledge several colleagues who have allowed us to      
interface, adapt or use parts of their codes:                            
  Ed Valeev, F. Pavosevic, A. Kumar             : LibInt (2-el integral package), F12 methods 
  Garnet Chan, S. Sharma, J. Yang, R. Olivares  : DMRG                   
  Ulf Ekstrom                                   : XCFun DFT Library      
  Mihaly Kallay                                 : mrcc  (arbitrary order and MRCC methods)
  Frank Weinhold                                : gennbo (NPA and NBO analysis)           
  Simon Mueller                                 : openCOSMO-RS                            
  Christopher J. Cramer and Donald G. Truhlar   : smd solvation model                     
  S Lehtola, MJT Oliveira, MAL Marques          : LibXC Library                           
  Liviu Ungur et al                             : ANISO software                          


 Your calculation uses the libint2 library for the computation of 2-el integrals
 For citations please refer to: http://libint.valeyev.net

 Your ORCA version has been built with support for libXC version: 7.0.0
 For citations please refer to: https://libxc.gitlab.io

 This ORCA versions uses:
   CBLAS   interface :  Fast vector & matrix operations
   LAPACKE interface :  Fast linear algebra routines
   SCALAPACK package :  Parallel linear algebra routines
   Shared memory     :  Shared parallel matrices
   BLAS/LAPACK       :  OpenBLAS 0.3.29  USE64BITINT DYNAMIC_ARCH NO_AFFINITY Zen SINGLE_THREADED
        Core in use  :  Zen
   Copyright (c) 2011-2014, The OpenBLAS Project


  ***********************************
  * Starting time: Thu Apr 23 08:45:40 2026
  * Host name:     vmi3233575
  * Process ID:    1067612
  * Working dir.:  /root/b12_scan/test
  ***********************************

NOTE: MaxCore=2500 MB was set to SCF,MP2,MDCI,CIPSI,MRCI,RASCI and CIS
      => If you want to overwrite this, your respective input block should be placed after the MaxCore statement
================================================================================

----- Orbital basis set information -----
Your calculation utilizes the basis: def2-SVP
   F. Weigend and R. Ahlrichs, Phys. Chem. Chem. Phys. 7, 3297 (2005).

----- AuxJ basis set information -----
Your calculation utilizes the auxiliary basis: def2/J
   H-Rn: F. Weigend, Phys. Chem. Chem. Phys. 8, 1057 (2006).
   Fr-Lr: K. Eichkorn, F. Weigend, O. Treutler, R. Ahlrichs; Theor. Chem. Acc. 97, 119 (1997).

================================================================================
                                        WARNINGS
                       Please study these warnings very carefully!
================================================================================


WARNING: Geometry Optimization
  ===> : Switching off AutoStart
         For restart on a previous wavefunction, please use MOREAD

================================================================================
                                       INPUT FILE
================================================================================
NAME = test.inp
|  1> ! BP86 def2-SVP def2/J RI Opt TightSCF
|  2> %pal nprocs 8 end
|  3> %maxcore 2500
|  4> * xyz 0 1
|  5> B      0.0000   -0.9000   -1.4562
|  6> B     -0.9000   -1.4562    0.0000
|  7> B     -1.4562    0.0000   -0.9000
|  8> B      0.0000   -0.9000    1.4562
|  9> B     -0.9000    1.4562    0.0000
| 10> B      1.4562    0.0000   -0.9000
| 11> B      0.0000    0.9000   -1.4562
| 12> B      0.9000   -1.4562    0.0000
| 13> B     -1.4562    0.0000    0.9000
| 14> B      0.0000    0.9000    1.4562
| 15> B      0.9000    1.4562    0.0000
| 16> B      1.4562    0.0000    0.9000
| 17> *
| 18> 
| 19>                          ****END OF INPUT****
================================================================================

                       *****************************
                       * Geometry Optimization Run *
                       *****************************

Geometry optimization settings:
Update method            Update   .... BFGS
Choice of coordinates    CoordSys .... (2022) Redundant Internals
Initial Hessian          InHess   .... Almloef's Model
Max. no of cycles        MaxIter  .... 50

Convergence Tolerances:
Energy Change            TolE     ....  5.0000e-06 Eh
Max. Gradient            TolMAXG  ....  3.0000e-04 Eh/bohr
RMS Gradient             TolRMSG  ....  1.0000e-04 Eh/bohr
Max. Displacement        TolMAXD  ....  4.0000e-03 bohr
RMS Displacement         TolRMSD  ....  2.0000e-03 bohr
Strict Convergence                .... False

------------------------------------------------------------------------------
                        ORCA OPTIMIZATION COORDINATE SETUP
------------------------------------------------------------------------------

The optimization will be done in redundant internal coordinates (2022)
Making redundant internal coordinates   ...  (2022 redundants) done
Evaluating the initial hessian          ...  (Almloef) done
Evaluating the coordinates              ...  done
Calculating the B-matrix                .... done
Calculating the G-matrix                .... done
The number of degrees of freedom        ....  390

    -----------------------------------------------------------------
                    Redundant Internal Coordinates


    -----------------------------------------------------------------
         Definition                    Initial Value    Approx d2E/dq
    -----------------------------------------------------------------
      1. B(B   1,B   0)                  1.8000         0.185908   
      2. B(B   2,B   0)                  1.8000         0.185908   
      3. B(B   2,B   1)                  1.8000         0.185908   
      4. B(B   3,B   1)                  1.8000         0.185908   
      5. B(B   4,B   2)                  1.8000         0.185908   
      6. B(B   5,B   0)                  1.8000         0.185908   
      7. B(B   6,B   5)                  1.8000         0.185908   
      8. B(B   6,B   4)                  1.8000         0.185908   
      9. B(B   6,B   2)                  1.8000         0.185908   
     10. B(B   6,B   0)                  1.8000         0.185885   
     11. B(B   7,B   5)                  1.8000         0.185908   
     12. B(B   7,B   3)                  1.8000         0.185908   
     13. B(B   7,B   1)                  1.8000         0.185885   
     14. B(B   7,B   0)                  1.8000         0.185908   
     15. B(B   8,B   1)                  1.8000         0.185908   
     16. B(B   8,B   4)                  1.8000         0.185908   
     17. B(B   8,B   3)                  1.8000         0.185908   
     18. B(B   8,B   2)                  1.8000         0.185885   
     19. B(B   9,B   8)                  1.8000         0.185908   
     20. B(B   9,B   4)                  1.8000         0.185908   
     21. B(B   9,B   3)                  1.8000         0.185885   
     22. B(B  10,B   9)                  1.8000         0.185908   
     23. B(B  10,B   6)                  1.8000         0.185908   
     24. B(B  10,B   5)                  1.8000         0.185908   
     25. B(B  10,B   4)                  1.8000         0.185885   
     26. B(B  11,B  10)                  1.8000         0.185908   
     27. B(B  11,B   9)                  1.8000         0.185908   
     28. B(B  11,B   7)                  1.8000         0.185908   
     29. B(B  11,B   5)                  1.8000         0.185885   
     30. B(B  11,B   3)                  1.8000         0.185908   
     31. A(B   1,B   0,B   6)          107.9993         0.297725   
     32. A(B   1,B   0,B   5)          108.0008         0.297731   
     33. A(B   1,B   0,B   2)           60.0000         0.297731   
     34. A(B   2,B   0,B   5)          107.9997         0.297731   
     35. A(B   2,B   0,B   7)          108.0008         0.297731   
     36. A(B   5,B   0,B   6)           59.9994         0.297725   
     37. A(B   2,B   0,B   6)           59.9994         0.297725   
     38. A(B   5,B   0,B   7)           60.0000         0.297731   
     39. A(B   6,B   0,B   7)          107.9993         0.297725   
     40. A(B   1,B   0,B   7)           60.0013         0.297731   
     41. A(B   0,B   1,B   3)          107.9997         0.297731   
     42. A(B   7,B   1,B   8)          107.9993         0.297725   
     43. A(B   2,B   1,B   8)           60.0013         0.297731   
     44. A(B   0,B   1,B   8)          108.0008         0.297731   
     45. A(B   0,B   1,B   2)           60.0000         0.297731   
     46. A(B   2,B   1,B   7)          107.9993         0.297725   
     47. A(B   2,B   1,B   3)          108.0008         0.297731   
     48. A(B   3,B   1,B   7)           59.9994         0.297725   
     49. A(B   0,B   1,B   7)           59.9994         0.297725   
     50. A(B   3,B   1,B   8)           60.0000         0.297731   
     51. A(B   0,B   2,B   6)           60.0013         0.297731   
     52. A(B   0,B   2,B   1)           60.0000         0.297731   
     53. A(B   6,B   2,B   8)          107.9993         0.297725   
     54. A(B   4,B   2,B   8)           59.9994         0.297725   
     55. A(B   0,B   2,B   4)          108.0008         0.297731   
     56. A(B   0,B   2,B   8)          107.9993         0.297725   
     57. A(B   1,B   2,B   6)          108.0008         0.297731   
     58. A(B   1,B   2,B   8)           59.9994         0.297725   
     59. A(B   4,B   2,B   6)           60.0000         0.297731   
     60. A(B   1,B   2,B   4)          107.9997         0.297731   
     61. A(B   1,B   3,B   9)          107.9993         0.297725   
     62. A(B   7,B   3,B   9)          107.9993         0.297725   
     63. A(B   9,B   3,B  11)           59.9994         0.297725   
     64. A(B   8,B   3,B  11)          107.9997         0.297731   
     65. A(B   7,B   3,B  11)           60.0000         0.297731   
     66. A(B   1,B   3,B  11)          108.0008         0.297731   
     67. A(B   1,B   3,B   8)           60.0000         0.297731   
     68. A(B   8,B   3,B   9)           59.9994         0.297725   
     69. A(B   7,B   3,B   8)          108.0008         0.297731   
     70. A(B   1,B   3,B   7)           60.0013         0.297731   
     71. A(B   6,B   4,B   9)          107.9997         0.297731   
     72. A(B   2,B   4,B   9)          108.0008         0.297731   
     73. A(B   9,B   4,B  10)           59.9994         0.297725   
     74. A(B   8,B   4,B  10)          107.9993         0.297725   
     75. A(B   2,B   4,B   8)           60.0013         0.297731   
     76. A(B   6,B   4,B   8)          108.0008         0.297731   
     77. A(B   8,B   4,B   9)           60.0000         0.297731   
     78. A(B   6,B   4,B  10)           59.9994         0.297725   
     79. A(B   2,B   4,B  10)          107.9993         0.297725   
     80. A(B   2,B   4,B   6)           60.0000         0.297731   
     81. A(B  10,B   5,B  11)           59.9994         0.297725   
     82. A(B   7,B   5,B  11)           59.9994         0.297725   
     83. A(B   6,B   5,B  11)          107.9993         0.297725   
     84. A(B   0,B   5,B  11)          107.9993         0.297725   
     85. A(B   0,B   5,B   6)           60.0013         0.297731   
     86. A(B   6,B   5,B  10)           60.0000         0.297731   
     87. A(B   0,B   5,B  10)          108.0008         0.297731   
     88. A(B   6,B   5,B   7)          108.0008         0.297731   
     89. A(B   0,B   5,B   7)           60.0000         0.297731   
     90. A(B   7,B   5,B  10)          107.9997         0.297731   
     91. A(B   4,B   6,B   5)          108.0008         0.297731   
     92. A(B   2,B   6,B   5)          107.9997         0.297731   
     93. A(B   0,B   6,B   5)           59.9994         0.297725   
     94. A(B   5,B   6,B  10)           60.0000         0.297731   
     95. A(B   4,B   6,B  10)           60.0013         0.297731   
     96. A(B   2,B   6,B  10)          108.0008         0.297731   
     97. A(B   2,B   6,B   4)           60.0000         0.297731   
     98. A(B   0,B   6,B  10)          107.9993         0.297725   
     99. A(B   0,B   6,B   4)          107.9993         0.297725   
    100. A(B   0,B   6,B   2)           59.9994         0.297725   
    101. A(B   0,B   7,B   1)           59.9994         0.297725   
    102. A(B   5,B   7,B  11)           60.0013         0.297731   
    103. A(B   3,B   7,B  11)           60.0000         0.297731   
    104. A(B   0,B   7,B  11)          108.0008         0.297731   
    105. A(B   3,B   7,B   5)          108.0008         0.297731   
    106. A(B   1,B   7,B   5)          107.9993         0.297725   
    107. A(B   0,B   7,B   5)           60.0000         0.297731   
    108. A(B   1,B   7,B   3)           59.9994         0.297725   
    109. A(B   1,B   7,B  11)          107.9993         0.297725   
    110. A(B   0,B   7,B   3)          107.9997         0.297731   
    111. A(B   3,B   8,B   4)          108.0008         0.297731   
    112. A(B   2,B   8,B   4)           59.9994         0.297725   
    113. A(B   1,B   8,B   4)          107.9997         0.297731   
    114. A(B   2,B   8,B   3)          107.9993         0.297725   
    115. A(B   1,B   8,B   3)           60.0000         0.297731   
    116. A(B   1,B   8,B   2)           59.9994         0.297725   
    117. A(B   4,B   8,B   9)           60.0000         0.297731   
    118. A(B   3,B   8,B   9)           60.0013         0.297731   
    119. A(B   2,B   8,B   9)          107.9993         0.297725   
    120. A(B   1,B   8,B   9)          108.0008         0.297731   
    121. A(B  10,B   9,B  11)           60.0000         0.297731   
    122. A(B   8,B   9,B  11)          107.9997         0.297731   
    123. A(B   4,B   9,B  11)          108.0008         0.297731   
    124. A(B   3,B   9,B  11)           59.9994         0.297725   
    125. A(B   8,B   9,B  10)          108.0008         0.297731   
    126. A(B   4,B   9,B  10)           60.0013         0.297731   
    127. A(B   3,B   9,B  10)          107.9993         0.297725   
    128. A(B   4,B   9,B   8)           60.0000         0.297731   
    129. A(B   3,B   9,B   8)           59.9994         0.297725   
    130. A(B   3,B   9,B   4)          107.9993         0.297725   
    131. A(B   9,B  10,B  11)           60.0000         0.297731   
    132. A(B   5,B  10,B  11)           60.0013         0.297731   
    133. A(B   4,B  10,B  11)          107.9993         0.297725   
    134. A(B   6,B  10,B  11)          108.0008         0.297731   
    135. A(B   6,B  10,B   9)          107.9997         0.297731   
    136. A(B   5,B  10,B   9)          108.0008         0.297731   
    137. A(B   4,B  10,B   9)           59.9994         0.297725   
    138. A(B   5,B  10,B   6)           60.0000         0.297731   
    139. A(B   4,B  10,B   6)           59.9994         0.297725   
    140. A(B   4,B  10,B   5)          107.9993         0.297725   
    141. A(B   9,B  11,B  10)           60.0000         0.297731   
    142. A(B   7,B  11,B  10)          107.9997         0.297731   
    143. A(B   5,B  11,B  10)           59.9994         0.297725   
    144. A(B   3,B  11,B  10)          108.0008         0.297731   
    145. A(B   7,B  11,B   9)          108.0008         0.297731   
    146. A(B   5,B  11,B   9)          107.9993         0.297725   
    147. A(B   3,B  11,B   9)           60.0013         0.297731   
    148. A(B   5,B  11,B   7)           59.9994         0.297725   
    149. A(B   3,B  11,B   7)           60.0000         0.297731   
    150. A(B   3,B  11,B   5)          107.9993         0.297725   
    151. D(B   7,B   1,B   0,B   2)   -138.1894         0.010000   
    152. D(B   2,B   1,B   0,B   5)    100.8115         0.010000   
    153. D(B   3,B   1,B   0,B   7)     37.3759         0.010000   
    154. D(B   3,B   1,B   0,B   5)     -0.0019         0.010000   
    155. D(B   2,B   1,B   0,B   6)     37.3772         0.010000   
    156. D(B   3,B   1,B   0,B   6)    -63.4363         0.010000   
    157. D(B   3,B   1,B   0,B   2)   -100.8135         0.010000   
    158. D(B   2,B   1,B   0,B   7)    138.1894         0.010000   
    159. D(B   6,B   2,B   0,B   1)    138.1894         0.010000   
    160. D(B   0,B   2,B   1,B   7)     37.3772         0.010000   
    161. D(B   0,B   2,B   1,B   8)    138.1894         0.010000   
    162. D(B   1,B   2,B   0,B   6)   -138.1894         0.010000   
    163. D(B   4,B   2,B   1,B   3)     -0.0019         0.010000   
    164. D(B   4,B   2,B   1,B   0)   -100.8135         0.010000   
    165. D(B   4,B   2,B   0,B   6)    -37.3779         0.010000   
    166. D(B   1,B   2,B   0,B   7)    -37.3784         0.010000   
    167. D(B   1,B   2,B   0,B   5)   -100.8135         0.010000   
    168. D(B   6,B   2,B   1,B   0)    -37.3784         0.010000   
    169. D(B   0,B   2,B   1,B   3)    100.8115         0.010000   
    170. D(B   4,B   2,B   0,B   7)     63.4331         0.010000   
    171. D(B   4,B   2,B   0,B   5)     -0.0019         0.010000   
    172. D(B   4,B   2,B   1,B   8)     37.3759         0.010000   
    173. D(B   4,B   2,B   0,B   1)    100.8115         0.010000   
    174. D(B   4,B   2,B   1,B   7)    -63.4363         0.010000   
    175. D(B   8,B   3,B   1,B   7)    138.1894         0.010000   
    176. D(B   7,B   3,B   1,B   2)   -100.8110         0.010000   
    177. D(B   9,B   3,B   1,B   0)     63.4363         0.010000   
    178. D(B   7,B   3,B   1,B   0)    -37.3759         0.010000   
    179. D(B   8,B   3,B   1,B   2)     37.3784         0.010000   
    180. D(B   7,B   3,B   1,B   8)   -138.1894         0.010000   
    181. D(B   8,B   3,B   1,B   0)    100.8135         0.010000   
    182. D(B   9,B   3,B   1,B   2)      0.0012         0.010000   
    183. D(B   8,B   4,B   2,B   6)   -138.1894         0.010000   
    184. D(B   9,B   4,B   2,B   0)    -63.4331         0.010000   
    185. D(B   6,B   4,B   2,B   0)     37.3784         0.010000   
    186. D(B   8,B   4,B   2,B   0)   -100.8110         0.010000   
    187. D(B   6,B   4,B   2,B   1)    100.8135         0.010000   
    188. D(B   9,B   4,B   2,B   1)      0.0019         0.010000   
    189. D(B   6,B   4,B   2,B   8)    138.1894         0.010000   
    190. D(B   8,B   4,B   2,B   1)    -37.3759         0.010000   
    191. D(B   6,B   5,B   0,B   7)   -138.1894         0.010000   
    192. D(B   7,B   5,B   0,B   2)    100.8135         0.010000   
    193. D(B   7,B   5,B   0,B   6)    138.1894         0.010000   
    194. D(B  10,B   5,B   0,B   1)    -63.4331         0.010000   
    195. D(B  10,B   5,B   0,B   2)      0.0019         0.010000   
    196. D(B   7,B   5,B   0,B   1)     37.3784         0.010000   
    197. D(B   6,B   5,B   0,B   2)    -37.3759         0.010000   
    198. D(B   6,B   5,B   0,B   1)   -100.8110         0.010000   
    199. D(B   4,B   6,B   2,B   0)   -138.1894         0.010000   
    200. D(B   0,B   6,B   2,B   4)    138.1894         0.010000   
    201. D(B   4,B   6,B   0,B   2)     37.3775         0.010000   
    202. D(B   2,B   6,B   0,B   7)   -100.8135         0.010000   
    203. D(B   4,B   6,B   2,B   1)   -100.8115         0.010000   
    204. D(B   5,B   6,B   0,B   1)    100.8135         0.010000   
    205. D(B   4,B   6,B   0,B   7)    -63.4360         0.010000   
    206. D(B   4,B   6,B   0,B   1)      0.0000         0.010000   
    207. D(B   0,B   6,B   2,B   1)     37.3779         0.010000   
    208. D(B   2,B   6,B   0,B   5)   -138.1910         0.010000   
    209. D(B   4,B   6,B   2,B   8)    -37.3772         0.010000   
    210. D(B   0,B   6,B   2,B   8)    100.8122         0.010000   
    211. D(B   4,B   6,B   0,B   5)   -100.8135         0.010000   
    212. D(B   2,B   6,B   0,B   1)    -37.3775         0.010000   
    213. D(B   4,B   6,B   5,B   0)    100.8110         0.010000   
    214. D(B   5,B   6,B   2,B   0)    -37.3759         0.010000   
    215. D(B   2,B   6,B   5,B  10)   -100.8135         0.010000   
    216. D(B   2,B   6,B   5,B   7)     -0.0019         0.010000   
    217. D(B   2,B   6,B   5,B   0)     37.3759         0.010000   
    218. D(B   0,B   6,B   5,B  10)   -138.1894         0.010000   
    219. D(B   0,B   6,B   5,B   7)    -37.3779         0.010000   
    220. D(B   5,B   6,B   4,B   2)   -100.8115         0.010000   
    221. D(B   0,B   6,B   4,B   9)     63.4363         0.010000   
    222. D(B   2,B   6,B   4,B   8)     37.3784         0.010000   
    223. D(B   0,B   6,B   4,B  10)    100.8122         0.010000   
    224. D(B   0,B   6,B   5,B  11)   -100.8122         0.010000   
    225. D(B   2,B   6,B   4,B  10)    138.1894         0.010000   
    226. D(B   0,B   6,B   4,B   8)      0.0012         0.010000   
    227. D(B   0,B   6,B   4,B   2)    -37.3772         0.010000   
    228. D(B   2,B   6,B   5,B  11)    -63.4363         0.010000   
    229. D(B   5,B   6,B   2,B   1)      0.0019         0.010000   
    230. D(B   2,B   6,B   4,B   9)    100.8135         0.010000   
    231. D(B   3,B   7,B   5,B   0)   -100.8115         0.010000   
    232. D(B   1,B   7,B   5,B  10)     63.4363         0.010000   
    233. D(B   1,B   7,B   5,B   6)      0.0012         0.010000   
    234. D(B   1,B   7,B   5,B   0)    -37.3772         0.010000   
    235. D(B   0,B   7,B   5,B  10)    100.8135         0.010000   
    236. D(B   0,B   7,B   5,B   6)     37.3784         0.010000   
    237. D(B   5,B   7,B   3,B   1)    100.8110         0.010000   
    238. D(B   1,B   7,B   3,B   9)   -100.8122         0.010000   
    239. D(B   1,B   7,B   3,B   8)    -37.3779         0.010000   
    240. D(B   0,B   7,B   3,B  11)   -100.8135         0.010000   
    241. D(B   0,B   7,B   3,B   1)     37.3759         0.010000   
    242. D(B   5,B   7,B   1,B   2)      0.0000         0.010000   
    243. D(B   0,B   7,B   1,B   8)   -100.8135         0.010000   
    244. D(B   3,B   7,B   1,B   2)    100.8135         0.010000   
    245. D(B   3,B   7,B   1,B   0)    138.1910         0.010000   
    246. D(B   5,B   7,B   1,B   0)     37.3775         0.010000   
    247. D(B   0,B   7,B   1,B   3)   -138.1910         0.010000   
    248. D(B   0,B   7,B   1,B   2)    -37.3775         0.010000   
    249. D(B   5,B   7,B   0,B   1)   -138.1894         0.010000   
    250. D(B   3,B   7,B   1,B   8)     37.3775         0.010000   
    251. D(B   3,B   7,B   0,B   6)     63.4363         0.010000   
    252. D(B   1,B   7,B   3,B  11)   -138.1894         0.010000   
    253. D(B   3,B   7,B   0,B   5)    100.8135         0.010000   
    254. D(B   0,B   7,B   3,B   9)    -63.4363         0.010000   
    255. D(B   3,B   7,B   0,B   2)      0.0019         0.010000   
    256. D(B   0,B   7,B   5,B  11)    138.1894         0.010000   
    257. D(B   3,B   7,B   0,B   1)    -37.3759         0.010000   
    258. D(B   1,B   7,B   0,B   2)     37.3779         0.010000   
    259. D(B   1,B   7,B   5,B  11)    100.8122         0.010000   
    260. D(B   1,B   7,B   0,B   5)    138.1894         0.010000   
    261. D(B   0,B   7,B   3,B   8)     -0.0019         0.010000   
    262. D(B   1,B   7,B   0,B   6)    100.8122         0.010000   
    263. D(B   3,B   8,B   2,B   4)   -100.8135         0.010000   
    264. D(B   3,B   8,B   2,B   1)     37.3775         0.010000   
    265. D(B   3,B   8,B   2,B   0)      0.0000         0.010000   
    266. D(B   1,B   8,B   2,B   4)   -138.1910         0.010000   
    267. D(B   1,B   8,B   2,B   0)    -37.3775         0.010000   
    268. D(B   4,B   8,B   1,B   2)    -37.3759         0.010000   
    269. D(B   3,B   8,B   1,B   0)   -100.8115         0.010000   
    270. D(B   2,B   8,B   1,B   0)     37.3779         0.010000   
    271. D(B   2,B   8,B   1,B   7)    100.8122         0.010000   
    272. D(B   1,B   8,B   2,B   6)   -100.8135         0.010000   
    273. D(B   2,B   8,B   1,B   3)    138.1894         0.010000   
    274. D(B   3,B   8,B   1,B   2)   -138.1894         0.010000   
    275. D(B   4,B   8,B   1,B   0)      0.0019         0.010000   
    276. D(B   3,B   8,B   2,B   6)    -63.4360         0.010000   
    277. D(B   3,B   8,B   1,B   7)    -37.3772         0.010000   
    278. D(B   3,B   8,B   4,B   2)    100.8110         0.010000   
    279. D(B   2,B   8,B   4,B   9)   -138.1894         0.010000   
    280. D(B   2,B   8,B   4,B   6)    -37.3779         0.010000   
    281. D(B   1,B   8,B   4,B  10)    -63.4363         0.010000   
    282. D(B   1,B   8,B   4,B   6)     -0.0019         0.010000   
    283. D(B   1,B   8,B   4,B   2)     37.3759         0.010000   
    284. D(B   4,B   8,B   3,B   1)   -100.8115         0.010000   
    285. D(B   2,B   8,B   3,B  11)     63.4363         0.010000   
    286. D(B   2,B   8,B   3,B   9)    100.8122         0.010000   
    287. D(B   2,B   8,B   3,B   7)      0.0012         0.010000   
    288. D(B   1,B   8,B   4,B   9)   -100.8135         0.010000   
    289. D(B   2,B   8,B   3,B   1)    -37.3772         0.010000   
    290. D(B   1,B   8,B   3,B  11)    100.8135         0.010000   
    291. D(B   1,B   8,B   3,B   9)    138.1894         0.010000   
    292. D(B   2,B   8,B   4,B  10)   -100.8122         0.010000   
    293. D(B   1,B   8,B   3,B   7)     37.3784         0.010000   
    294. D(B   4,B   8,B   2,B   0)    100.8135         0.010000   
    295. D(B  10,B   9,B   8,B   2)     -0.0012         0.010000   
    296. D(B   4,B   9,B   8,B   3)    138.1894         0.010000   
    297. D(B   4,B   9,B   8,B   2)     37.3772         0.010000   
    298. D(B   4,B   9,B   8,B   1)    100.8115         0.010000   
    299. D(B   3,B   9,B   8,B   4)   -138.1894         0.010000   
    300. D(B   3,B   9,B   8,B   2)   -100.8122         0.010000   
    301. D(B   3,B   9,B   8,B   1)    -37.3779         0.010000   
    302. D(B  10,B   9,B   4,B   2)    100.8110         0.010000   
    303. D(B   8,B   9,B   4,B  10)   -138.1894         0.010000   
    304. D(B   8,B   9,B   4,B   6)   -100.8135         0.010000   
    305. D(B   8,B   9,B   4,B   2)    -37.3784         0.010000   
    306. D(B   3,B   9,B   4,B  10)   -100.8122         0.010000   
    307. D(B   3,B   9,B   4,B   8)     37.3772         0.010000   
    308. D(B   3,B   9,B   4,B   6)    -63.4363         0.010000   
    309. D(B   3,B   9,B   4,B   2)     -0.0012         0.010000   
    310. D(B  10,B   9,B   3,B   1)    -63.4360         0.010000   
    311. D(B   8,B   9,B   3,B  11)    138.1910         0.010000   
    312. D(B   8,B   9,B   3,B   7)    100.8135         0.010000   
    313. D(B   8,B   9,B   3,B   1)     37.3775         0.010000   
    314. D(B   4,B   9,B   3,B  11)    100.8135         0.010000   
    315. D(B   4,B   9,B   3,B   8)    -37.3775         0.010000   
    316. D(B  10,B   9,B   8,B   1)     63.4331         0.010000   
    317. D(B   4,B   9,B   3,B   7)     63.4360         0.010000   
    318. D(B   4,B   9,B   3,B   1)      0.0000         0.010000   
    319. D(B   6,B  10,B   9,B   3)     63.4363         0.010000   
    320. D(B   5,B  10,B   9,B   8)    -63.4331         0.010000   
    321. D(B   5,B  10,B   9,B   4)   -100.8110         0.010000   
    322. D(B   5,B  10,B   9,B   3)      0.0012         0.010000   
    323. D(B   4,B  10,B   9,B  11)    138.1894         0.010000   
    324. D(B   4,B  10,B   9,B   8)     37.3779         0.010000   
    325. D(B   4,B  10,B   9,B   3)    100.8122         0.010000   
    326. D(B   9,B  10,B   6,B   2)     -0.0019         0.010000   
    327. D(B   5,B  10,B   6,B   4)    138.1894         0.010000   
    328. D(B   5,B  10,B   6,B   2)    100.8115         0.010000   
    329. D(B   5,B  10,B   6,B   0)     37.3772         0.010000   
    330. D(B   4,B  10,B   6,B   2)    -37.3779         0.010000   
    331. D(B   4,B  10,B   6,B   0)   -100.8122         0.010000   
    332. D(B   9,B  10,B   5,B   0)     63.4331         0.010000   
    333. D(B   6,B  10,B   5,B  11)   -138.1894         0.010000   
    334. D(B   6,B  10,B   5,B   7)   -100.8135         0.010000   
    335. D(B   6,B  10,B   5,B   0)    -37.3784         0.010000   
    336. D(B   4,B  10,B   6,B   5)   -138.1894         0.010000   
    337. D(B   4,B  10,B   5,B  11)   -100.8122         0.010000   
    338. D(B   4,B  10,B   5,B   7)    -63.4363         0.010000   
    339. D(B   4,B  10,B   5,B   6)     37.3772         0.010000   
    340. D(B   9,B  10,B   6,B   0)    -63.4363         0.010000   
    341. D(B   4,B  10,B   5,B   0)     -0.0012         0.010000   
    342. D(B   9,B  10,B   4,B   2)   -100.8135         0.010000   
    343. D(B   6,B  10,B   4,B   9)    138.1910         0.010000   
    344. D(B   6,B  10,B   4,B   8)    100.8135         0.010000   
    345. D(B   6,B  10,B   4,B   2)     37.3775         0.010000   
    346. D(B   5,B  10,B   4,B   9)    100.8135         0.010000   
    347. D(B   5,B  10,B   4,B   8)     63.4360         0.010000   
    348. D(B   5,B  10,B   9,B  11)     37.3784         0.010000   
    349. D(B   5,B  10,B   4,B   6)    -37.3775         0.010000   
    350. D(B   5,B  10,B   4,B   2)      0.0000         0.010000   
    351. D(B   7,B  11,B  10,B   4)     63.4363         0.010000   
    352. D(B   5,B  11,B  10,B   6)     37.3779         0.010000   
    353. D(B   5,B  11,B  10,B   4)    100.8122         0.010000   
    354. D(B   3,B  11,B  10,B   9)     37.3784         0.010000   
    355. D(B   3,B  11,B  10,B   5)   -100.8110         0.010000   
    356. D(B   3,B  11,B  10,B   4)      0.0012         0.010000   
    357. D(B   7,B  11,B   9,B   3)     37.3779         0.010000   
    358. D(B   5,B  11,B   9,B   8)     63.4363         0.010000   
    359. D(B   5,B  11,B   9,B   4)      0.0012         0.010000   
    360. D(B   5,B  11,B   9,B   3)    100.8122         0.010000   
    361. D(B   3,B  11,B   9,B  10)   -138.1894         0.010000   
    362. D(B   3,B  11,B   9,B   8)    -37.3759         0.010000   
    363. D(B   3,B  11,B   9,B   4)   -100.8110         0.010000   
    364. D(B   9,B  11,B   7,B   1)     -0.0012         0.010000   
    365. D(B   5,B  11,B   7,B   3)   -138.1894         0.010000   
    366. D(B   5,B  11,B   7,B   1)   -100.8122         0.010000   
    367. D(B   5,B  11,B   7,B   0)    -37.3779         0.010000   
    368. D(B   3,B  11,B   7,B   5)    138.1894         0.010000   
    369. D(B   3,B  11,B   7,B   1)     37.3772         0.010000   
    370. D(B   3,B  11,B   7,B   0)    100.8115         0.010000   
    371. D(B   9,B  11,B   5,B   0)    -63.4360         0.010000   
    372. D(B   9,B  11,B   7,B   0)     63.4331         0.010000   
    373. D(B   7,B  11,B   5,B  10)    138.1910         0.010000   
    374. D(B   7,B  11,B   5,B   6)    100.8135         0.010000   
    375. D(B   7,B  11,B   5,B   0)     37.3775         0.010000   
    376. D(B   3,B  11,B   5,B  10)    100.8135         0.010000   
    377. D(B   3,B  11,B   5,B   7)    -37.3775         0.010000   
    378. D(B   3,B  11,B   5,B   6)     63.4360         0.010000   
    379. D(B   3,B  11,B   5,B   0)      0.0000         0.010000   
    380. D(B   5,B  11,B   9,B  10)    -37.3772         0.010000   
    381. D(B   9,B  11,B   3,B   1)    100.8110         0.010000   
    382. D(B   7,B  11,B   3,B   9)   -138.1894         0.010000   
    383. D(B   7,B  11,B   3,B   8)   -100.8135         0.010000   
    384. D(B   3,B  11,B  10,B   6)    -63.4331         0.010000   
    385. D(B   7,B  11,B   3,B   1)    -37.3784         0.010000   
    386. D(B   5,B  11,B   3,B   9)   -100.8122         0.010000   
    387. D(B   5,B  11,B   3,B   8)    -63.4363         0.010000   
    388. D(B   5,B  11,B  10,B   9)    138.1894         0.010000   
    389. D(B   5,B  11,B   3,B   7)     37.3772         0.010000   
    390. D(B   5,B  11,B   3,B   1)     -0.0012         0.010000   
    -----------------------------------------------------------------

Number of atoms                         .... 12
Number of degrees of freedom            .... 390


         *************************************************************
         *                GEOMETRY OPTIMIZATION CYCLE   1            *
         *************************************************************
---------------------------------
CARTESIAN COORDINATES (ANGSTROEM)
---------------------------------
  B      0.000000   -0.900000   -1.456200
  B     -0.900000   -1.456200    0.000000
  B     -1.456200    0.000000   -0.900000
  B      0.000000   -0.900000    1.456200
  B     -0.900000    1.456200    0.000000
  B      1.456200    0.000000   -0.900000
  B      0.000000    0.900000   -1.456200
  B      0.900000   -1.456200    0.000000
  B     -1.456200    0.000000    0.900000
  B      0.000000    0.900000    1.456200
  B      0.900000    1.456200    0.000000
  B      1.456200    0.000000    0.900000

----------------------------
CARTESIAN COORDINATES (A.U.)
----------------------------
  NO LB      ZA    FRAG     MASS         X           Y           Z
   0 B     5.0000    0    10.810    0.000000   -1.700754   -2.751819
   1 B     5.0000    0    10.810   -1.700754   -2.751819    0.000000
   2 B     5.0000    0    10.810   -2.751819    0.000000   -1.700754
   3 B     5.0000    0    10.810    0.000000   -1.700754    2.751819
   4 B     5.0000    0    10.810   -1.700754    2.751819    0.000000
   5 B     5.0000    0    10.810    2.751819    0.000000   -1.700754
   6 B     5.0000    0    10.810    0.000000    1.700754   -2.751819
   7 B     5.0000    0    10.810    1.700754   -2.751819    0.000000
   8 B     5.0000    0    10.810   -2.751819    0.000000    1.700754
   9 B     5.0000    0    10.810    0.000000    1.700754    2.751819
  10 B     5.0000    0    10.810    1.700754    2.751819    0.000000
  11 B     5.0000    0    10.810    2.751819    0.000000    1.700754

--------------------------------
INTERNAL COORDINATES (ANGSTROEM)
--------------------------------
 B      0   0   0     0.000000000000     0.00000000     0.00000000
 B      1   0   0     1.799965799675     0.00000000     0.00000000
 B      1   2   0     1.799965799675    60.00000000     0.00000000
 B      2   1   3     1.799965799675   107.99968360   259.18654299
 B      3   1   2     1.799965799675   108.00082829   100.81150956
 B      1   2   3     1.799965799675   108.00082829   100.81150956
 B      3   1   2     1.799965799675    60.00125707   138.18936052
 B      1   2   3     1.799965799675    60.00125707   138.18936052
 B      2   1   3     1.799965799675   108.00082829   322.62159459
 B      5   3   1     1.799965799675   108.00082829   296.56689585
 B      6   1   2     1.799965799675   108.00082829   296.56689585
 B      4   2   1     1.799965799675   108.00082829     0.00000000

---------------------------
INTERNAL COORDINATES (A.U.)
---------------------------
 B      0   0   0     0.000000000000     0.00000000     0.00000000
 B      1   0   0     3.401442411810     0.00000000     0.00000000
 B      1   2   0     3.401442411810    60.00000000     0.00000000
 B      2   1   3     3.401442411810   107.99968360   259.18654299
 B      3   1   2     3.401442411810   108.00082829   100.81150956
 B      1   2   3     3.401442411810   108.00082829   100.81150956
 B      3   1   2     3.401442411810    60.00125707   138.18936052
 B      1   2   3     3.401442411810    60.00125707   138.18936052
 B      2   1   3     3.401442411810   108.00082829   322.62159459
 B      5   3   1     3.401442411810   108.00082829   296.56689585
 B      6   1   2     3.401442411810   108.00082829   296.56689585
 B      4   2   1     3.401442411810   108.00082829     0.00000000

---------------------
BASIS SET INFORMATION
---------------------
There are 1 groups of distinct atoms

 Group   1 Type B   : 7s4p1d contracted to 3s2p1d pattern {511/31/1}

Atom   0B    basis set group =>   1
Atom   1B    basis set group =>   1
Atom   2B    basis set group =>   1
Atom   3B    basis set group =>   1
Atom   4B    basis set group =>   1
Atom   5B    basis set group =>   1
Atom   6B    basis set group =>   1
Atom   7B    basis set group =>   1
Atom   8B    basis set group =>   1
Atom   9B    basis set group =>   1
Atom  10B    basis set group =>   1
Atom  11B    basis set group =>   1
---------------------------------
AUXILIARY/J BASIS SET INFORMATION
---------------------------------
There are 1 groups of distinct atoms

 Group   1 Type B   : 12s5p4d2f1g contracted to 6s4p3d1f1g pattern {711111/2111/211/2/1}

Atom   0B    basis set group =>   1
Atom   1B    basis set group =>   1
Atom   2B    basis set group =>   1
Atom   3B    basis set group =>   1
Atom   4B    basis set group =>   1
Atom   5B    basis set group =>   1
Atom   6B    basis set group =>   1
Atom   7B    basis set group =>   1
Atom   8B    basis set group =>   1
Atom   9B    basis set group =>   1
Atom  10B    basis set group =>   1
Atom  11B    basis set group =>   1


           ************************************************************
           *        Program running with 8 parallel MPI-processes     *
           *              working on a common directory               *
           ************************************************************
------------------------------------------------------------------------------
                             ORCA STARTUP CALCULATIONS
                           -- RI-GTO INTEGRALS CHOSEN --
------------------------------------------------------------------------------
------------------------------------------------------------------------------
                   ___                                                        
                  /   \      - P O W E R E D   B Y -                         
                 /     \                                                     
                 |  |  |   _    _      __       _____    __    __             
                 |  |  |  | |  | |    /  \     |  _  \  |  |  /  |          
                  \  \/   | |  | |   /    \    | | | |  |  | /  /          
                 / \  \   | |__| |  /  /\  \   | |_| |  |  |/  /          
                |  |  |   |  __  | /  /__\  \  |    /   |      \           
                |  |  |   | |  | | |   __   |  |    \   |  |\   \          
                \     /   | |  | | |  |  |  |  | |\  \  |  | \   \       
                 \___/    |_|  |_| |__|  |__|  |_| \__\ |__|  \__/        
                                                                              
                      - O R C A' S   B I G   F R I E N D -                    
                                      &                                       
                       - I N T E G R A L  F E E D E R -                       
                                                                              
 v1 FN, 2020, v2 2021, v3 2022-2024                                           
------------------------------------------------------------------------------


----------------------
SHARK INTEGRAL PACKAGE
----------------------

Number of atoms                             ...     12
Number of basis functions                   ...    168
Number of shells                            ...     72
Maximum angular momentum                    ...      2
Integral batch strategy                     ... SHARK/LIBINT Hybrid
RI-J (if used) integral strategy            ... SPLIT-RIJ (Revised 2003 algorithm where possible)
Printlevel                                  ...      1
Contraction scheme used                     ... SEGMENTED contraction
Prescreening option                         ... SCHWARTZ
   Thresh                                   ... 2.500e-11
   Tcut                                     ... 2.500e-12
   Tpresel                                  ... 2.500e-12 
Coulomb Range Separation                    ... NOT USED
Exchange Range Separation                   ... NOT USED
Multipole approximations                    ... NOT USED
Finite Nucleus Model                        ... NOT USED
CABS basis                                  ... NOT available
Auxiliary Coulomb fitting basis             ... AVAILABLE
   # of basis functions in Aux-J            ...    588
   # of shells in Aux-J                     ...    180
   Maximum angular momentum in Aux-J        ...      4
Auxiliary J/K fitting basis                 ... NOT available
Auxiliary Correlation fitting basis         ... NOT available
Auxiliary 'external' fitting basis          ... NOT available

Checking pre-screening integrals            ... done (  0.0 sec) Dimension = 72
   => SHARK Basis and OBASIS are compatible. Storing Pre-screening
Shell pair information
Shell pair cut-off parameter TPreSel        ...   2.5e-12
Total number of shell pairs                 ...      2628
Shell pairs after pre-screening             ...      2592
Total number of primitive shell pairs       ...     10596
Primitive shell pairs kept                  ...      8178
          la=0 lb=0:    630 shell pairs
          la=1 lb=0:    864 shell pairs
          la=1 lb=1:    300 shell pairs
          la=2 lb=0:    432 shell pairs
          la=2 lb=1:    288 shell pairs
          la=2 lb=2:     78 shell pairs

Checking whether 4 symmetric matrices of dimension 168 fit in memory
:Max Core in MB      =   2500.00
 MB in use           =      6.96
 MB left             =   2493.04
 MB needed           =      0.43
 Data fit in memory  = YES
Calculating RI/J V-Matrix + Cholesky decomp.... done (  0.3 sec)
Calculating Nuclear repulsion               ... done (  0.0 sec) ENN=    379.950647640796 Eh

Diagonalization of the overlap matrix:
Smallest eigenvalue                        ... 2.936e-04
Time for diagonalization                   ...    0.020 sec
Threshold for overlap eigenvalues          ... 1.000e-07
Number of eigenvalues below threshold      ... 0
Time for construction of square roots      ...    0.004 sec
Total time needed                          ...    0.029 sec

-------------------
DFT GRID GENERATION
-------------------

General Integration Accuracy     IntAcc      ... 4.388
Radial Grid Type                 RadialGrid  ... OptM3 with GC (2021)
Angular Grid (max. ang.)         AngularGrid ... 4 (Lebedev-302)
Angular grid pruning method      GridPruning ... 4 (adaptive)
Weight generation scheme         WeightScheme... mBecke (2022)
Basis function cutoff            BFCut       ... 1.0000e-11
Integration weight cutoff        WCut        ... 1.0000e-14
Partially contracted basis set               ... off
Rotationally invariant grid construction     ... off
Angular grids for H and He will be reduced by one unit

Total number of grid points                  ...    69828
Total number of batches                      ...     1098
Average number of points per batch           ...       63
Average number of grid points per atom       ...     5819
Grids setup in   1.2 sec
Initializing property integral containers    ... done (  0.1 sec)

SHARK setup successfully completed in   2.3 seconds

Maximum memory used throughout the entire STARTUP-calculation: 19.7 MB


           ************************************************************
           *        Program running with 8 parallel MPI-processes     *
           *              working on a common directory               *
           ************************************************************
-------------------------------------------------------------------------------
                                 ORCA GUESS
                   Start orbitals & Density for SCF / CASSCF
-------------------------------------------------------------------------------

------------
SCF SETTINGS
------------
Hamiltonian:
 Density Functional     Method          .... DFT(GTOs)
 Exchange Functional    Exchange        .... B88
   X-Alpha parameter    XAlpha          ....  0.666667
   Becke's b parameter  XBeta           ....  0.004200
 Correlation Functional Correlation     .... P86
 LDA part of GGA corr.  LDAOpt          .... PW91-LDA
 Gradients option       PostSCFGGA      .... off
   NL short-range parameter             ....  4.400000
 RI-approximation to the Coulomb term is turned on
   Number of AuxJ basis functions       .... 588


General Settings:
 Integral files         IntName         .... test
 Hartree-Fock type      HFTyp           .... RHF
 Total Charge           Charge          ....    0
 Multiplicity           Mult            ....    1
 Number of Electrons    NEL             ....   60
 Basis Dimension        Dim             ....  168
 Nuclear Repulsion      ENuc            ....    379.9506476408 Eh

Convergence Acceleration:
 AO-DIIS                CNVDIIS         .... on
   Start iteration      DIISMaxIt       ....    12
   Startup error        DIISStart       ....  0.200000
   # of expansion vecs  DIISMaxEq       ....     5
   Bias factor          DIISBfac        ....   1.050
   Max. coefficient     DIISMaxC        ....  10.000
 MO-DIIS                CNVKDIIS        .... off
 Trust-Rad. Augm. Hess. CNVTRAH         .... auto
   Auto Start mean grad. ratio tolernc. ....  1.125000
   Auto Start start iteration           ....    50
   Auto Start num. interpolation iter.  ....    10
   Max. Number of Micro iterations      ....    24
   Max. Number of Macro iterations      .... Maxiter - #DIIS iter
   Number of Davidson start vectors     ....     2
   Converg. threshold    (grad. norm)   ....   1.000e-05
   Grad. Scal. Fac. for Micro threshold ....   0.100
   Minimum threshold for Micro iter.    ....   1.000e-02
   NR start threshold (gradient norm)   ....   1.000e-04
   Initial trust radius                 ....   0.400
   Minimum AH scaling param. (alpha)    ....   1.000
   Maximum AH scaling param. (alpha)    .... 1000.000
   Quad. conv. algorithm                .... NR
   White noise on init. David. guess    .... on
   Maximum white noise                  ....   0.010
   Pseudo random numbers                .... off
   Inactive MOs                         .... canonical
   Orbital update algorithm             .... Taylor
   Preconditioner                       .... Diag
   Full preconditioner red. dimension   ....   250
 SOSCF                 CNVSOSCF           .... on
   Start iteration     SOSCFMaxIt         ....   150
   Startup grad/error  SOSCFStart         ....  0.003300
   Hessian update      SOSCFHessUp        .... L-BFGS
   Autom. constraints  SOSCFAutoConstrain .... off
 Level Shifting         CNVShift        .... on
   Level shift para.    LevelShift      ....    0.2500
   Turn off err/grad.   ShiftErr        ....    0.0010
 Zerner damping         CNVZerner       .... off
 Static damping         CNVDamp         .... on
   Fraction old density DampFac         ....    0.7000
   Max. Damping (<1)    DampMax         ....    0.9800
   Min. Damping (>=0)   DampMin         ....    0.0000
   Turn off err/grad.   DampErr         ....    0.1000

SCF Procedure:
 Maximum # iterations   MaxIter         ....   125
 SCF integral mode      SCFMode         .... Direct
   Integral package                     .... SHARK and LIBINT hybrid scheme
 Reset frequency        DirectResetFreq ....    20
 Integral Threshold     Thresh          ....  2.500e-11 Eh
 Primitive CutOff       TCut            ....  2.500e-12 Eh

Convergence Tolerance:
 Convergence Check Mode ConvCheckMode   .... Total+1el-Energy
 Convergence forced     ConvForced      .... 0
 Energy Change          TolE            ....  1.000e-08 Eh
 1-El. energy change                    ....  1.000e-05 Eh
 Orbital Gradient       TolG            ....  1.000e-05
 Orbital Rotation angle TolX            ....  1.000e-05
 DIIS Error             TolErr          ....  5.000e-07

------------------------------
INITIAL GUESS: MODEL POTENTIAL
------------------------------
Loading Hartree-Fock densities                     ... done
Calculating cut-offs                               ... done
Initializing the effective Hamiltonian             ... done
Setting up the integral package (SHARK)            ... done
Starting the Coulomb interaction                   ... done (   0.1 sec)
Making the grid                                    ... done (   0.2 sec)
Mapping shells                                     ... done
Starting the XC term evaluation                    ... done (   0.1 sec)
  promolecular density results
     # of electrons  =     60.046861637
     EX              =    -45.978915333
     EC              =     -2.055940243
     EX+EC           =    -48.034855575
Transforming the Hamiltonian                       ... done (   0.0 sec)
Diagonalizing the Hamiltonian                      ... done (   0.0 sec)
Back transforming the eigenvectors                 ... done (   0.0 sec)
Now organizing SCF variables                       ... done
                      ------------------
                      INITIAL GUESS DONE (   0.5 sec)
                      ------------------
             **** ENERGY FILE WAS UPDATED (test.en.tmp) ****
Finished Guess after   1.1 sec
Maximum memory used throughout the entire GUESS-calculation: 9.8 MB


           ************************************************************
           *        Program running with 8 parallel MPI-processes     *
           *              working on a common directory               *
           ************************************************************

-------------------------------------------------------------------------------------------
                                      ORCA LEAN-SCF
                              memory conserving SCF solver
-------------------------------------------------------------------------------------------

----------------------------------------D-I-I-S--------------------------------------------
Iteration    Energy (Eh)           Delta-E    RMSDP     MaxDP     DIISErr   Damp  Time(sec)
-------------------------------------------------------------------------------------------
               ***  Starting incremental Fock matrix formation  ***
    1    -297.1621001244441800     0.00e+00  4.41e-02  5.20e-01  1.30e-01  0.700   0.6
Warning: op=0 Small HOMO/LUMO gap (  -0.032) - skipping pre-diagonalization
         Will do a full diagonalization
    2    -297.3642535434975684    -2.02e-01  1.48e-02  1.04e-01  5.66e-02  0.700   0.5
                               ***Turning on AO-DIIS***
    3    -297.4271809217261193    -6.29e-02  1.31e-02  1.47e-01  1.27e-02  0.700   0.4
    4    -297.4608365870090552    -3.37e-02  3.99e-02  4.76e-01  8.82e-03  0.000   0.4
    5    -297.5440646627271803    -8.32e-02  4.01e-03  2.40e-02  1.19e-02  0.000   0.5
                              *** Initializing SOSCF ***
---------------------------------------S-O-S-C-F--------------------------------------
Iteration    Energy (Eh)           Delta-E    RMSDP     MaxDP     MaxGrad    Time(sec)
--------------------------------------------------------------------------------------
    6    -297.5477884328003597    -3.72e-03  2.43e-03  2.23e-02  3.29e-03     0.5
               *** Restarting incremental Fock matrix formation ***
    7    -297.5483161630696145    -5.28e-04  4.42e-03  4.49e-02  1.43e-03     0.4
    8    -297.5484258174990941    -1.10e-04  4.35e-03  5.02e-02  1.42e-03     0.3
    9    -297.5485446687857234    -1.19e-04  5.79e-03  5.36e-02  6.87e-04     1.0
   10    -297.5486046327416148    -6.00e-05  7.75e-03  5.79e-02  6.19e-04     0.4
   11    -297.5486455734754259    -4.09e-05  5.84e-03  4.99e-02  6.15e-04     0.4
   12    -297.5486778426792966    -3.23e-05  3.01e-03  2.56e-02  4.33e-04     0.4
   13    -297.5486991251491986    -2.13e-05  6.94e-03  5.82e-02  4.39e-04     0.5
   14    -297.5487330032793238    -3.39e-05  1.17e-02  9.60e-02  6.20e-04     0.6
   15    -297.5487890216995197    -5.60e-05  3.37e-02  2.68e-01  1.07e-03     0.4
   16    -297.5488310008918802    -4.20e-05  1.10e-02  9.12e-02  3.31e-03     0.4
   17    -297.5490121770522478    -1.81e-04  1.03e-02  9.93e-02  1.40e-03     0.3
   18    -297.5492148184485472    -2.03e-04  4.01e-02  3.36e-01  9.62e-04     0.4
   19    -297.5491617434150271     5.31e-05  2.77e-02  2.03e-01  1.90e-03     0.5
   20    -297.5493589635715921    -1.97e-04  4.03e-03  3.21e-02  5.23e-04     0.5
   21    -297.5493757631321046    -1.68e-05  4.34e-03  3.40e-02  4.64e-04     0.4
   22    -297.5493857657200465    -1.00e-05  1.01e-03  1.05e-02  1.43e-04     0.4
   23    -297.5493875494329927    -1.78e-06  3.66e-04  2.61e-03  8.35e-05     0.4
   24    -297.5493880007600751    -4.51e-07  4.39e-04  3.84e-03  5.83e-05     0.4
   25    -297.5493882636440617    -2.63e-07  1.35e-04  1.01e-03  3.15e-05     0.6
   26    -297.5493883110355569    -4.74e-08  3.71e-05  3.52e-04  1.19e-05     0.4
               *** Restarting incremental Fock matrix formation ***
   27    -297.5493883204608778    -9.43e-09  7.59e-05  7.24e-04  7.75e-06     0.4
                 **** Energy Check signals convergence ****

               *****************************************************
               *                     SUCCESS                       *
               *           SCF CONVERGED AFTER  27 CYCLES          *
               *****************************************************

             **** ENERGY FILE WAS UPDATED (test.en.tmp) ****

----------------
TOTAL SCF ENERGY
----------------

Total Energy       :       -297.54938831134263 Eh           -8096.73049 eV

Components:
Nuclear Repulsion  :        379.95064764079638 Eh           10338.98275 eV
Electronic Energy  :       -677.50003595213900 Eh          -18435.71323 eV
One Electron Energy:      -1147.13946411795769 Eh          -31215.25177 eV
Two Electron Energy:        469.63942816581869 Eh           12779.53854 eV

Virial components:
Potential Energy   :       -589.25523989336273 Eh          -16034.45025 eV
Kinetic Energy     :        291.70585158202010 Eh            7937.71977 eV
Virial Ratio       :          2.02003229176800

DFT components:
N(Alpha)           :       30.000416105295 electrons
N(Beta)            :       30.000416105295 electrons
N(Total)           :       60.000832210590 electrons
E(X)               :      -46.164579408116 Eh       
E(C)               :       -2.085197643634 Eh       
E(XC)              :      -48.249777051750 Eh       

---------------
SCF CONVERGENCE
---------------

  Last Energy change         ...    9.4253e-09  Tolerance :   1.0000e-08
  Last MAX-Density change    ...    7.2392e-04  Tolerance :   1.0000e-07
  Last RMS-Density change    ...    7.5898e-05  Tolerance :   5.0000e-09
  Last DIIS Error            ...    3.2891e-03  Tolerance :   5.0000e-07
  Last Orbital Gradient      ...    7.7501e-06  Tolerance :   1.0000e-05
  Last Orbital Rotation      ...    2.2814e-04  Tolerance :   1.0000e-05


----------------
ORBITAL ENERGIES
----------------

  NO   OCC          E(Eh)            E(eV) 
   0   2.0000      -6.623093      -180.2235 
   1   2.0000      -6.622998      -180.2209 
   2   2.0000      -6.622852      -180.2170 
   3   2.0000      -6.622841      -180.2167 
   4   2.0000      -6.622799      -180.2155 
   5   2.0000      -6.622788      -180.2152 
   6   2.0000      -6.595155      -179.4633 
   7   2.0000      -6.595115      -179.4622 
   8   2.0000      -6.595049      -179.4604 
   9   2.0000      -6.594953      -179.4578 
  10   2.0000      -6.594937      -179.4574 
  11   2.0000      -6.594793      -179.4535 
  12   2.0000      -0.748328       -20.3630 
  13   2.0000      -0.608911       -16.5693 
  14   2.0000      -0.603252       -16.4153 
  15   2.0000      -0.603250       -16.4153 
  16   2.0000      -0.448673       -12.2090 
  17   2.0000      -0.445728       -12.1289 
  18   2.0000      -0.445724       -12.1288 
  19   2.0000      -0.441197       -12.0056 
  20   2.0000      -0.441196       -12.0056 
  21   2.0000      -0.340729        -9.2717 
  22   2.0000      -0.321346        -8.7443 
  23   2.0000      -0.319364        -8.6903 
  24   2.0000      -0.319353        -8.6900 
  25   2.0000      -0.313833        -8.5398 
  26   2.0000      -0.239010        -6.5038 
  27   2.0000      -0.229957        -6.2575 
  28   2.0000      -0.229956        -6.2574 
  29   2.0000      -0.169533        -4.6132 
  30   0.0000      -0.179832        -4.8935 
  31   0.0000      -0.179828        -4.8934 
  32   0.0000      -0.136421        -3.7122 
  33   0.0000      -0.136414        -3.7120 
  34   0.0000      -0.129336        -3.5194 
  35   0.0000      -0.122239        -3.3263 
  36   0.0000      -0.122233        -3.3261 
  37   0.0000      -0.038025        -1.0347 
  38   0.0000      -0.037178        -1.0117 
  39   0.0000      -0.037168        -1.0114 
  40   0.0000      -0.034110        -0.9282 
*Only the first 10 virtual orbitals were printed.

                    ********************************
                    * MULLIKEN POPULATION ANALYSIS *
                    ********************************

-----------------------
MULLIKEN ATOMIC CHARGES
-----------------------
   0 B :   -0.012972
   1 B :   -0.013009
   2 B :    0.013124
   3 B :    0.012958
   4 B :   -0.012979
   5 B :    0.012958
   6 B :    0.013037
   7 B :   -0.013059
   8 B :    0.013113
   9 B :   -0.013002
  10 B :   -0.013062
  11 B :    0.012893
Sum of atomic charges:   -0.0000000

--------------------------------
MULLIKEN REDUCED ORBITAL CHARGES
--------------------------------
  0 B s       :     2.773002  s :     2.773002
      pz      :     0.686819  p :     2.178770
      px      :     0.762407
      py      :     0.729544
      dz2     :     0.013307  d :     0.061200
      dxz     :     0.011931
      dyz     :     0.011912
      dx2y2   :     0.013858
      dxy     :     0.010192

  1 B s       :     2.773042  s :     2.773042
      pz      :     0.760909  p :     2.178765
      px      :     0.732374
      py      :     0.685481
      dz2     :     0.009780  d :     0.061203
      dxz     :     0.013518
      dyz     :     0.013589
      dx2y2   :     0.012767
      dxy     :     0.011548

  2 B s       :     2.880245  s :     2.880245
      pz      :     0.691831  p :     2.047165
      px      :     0.636260
      py      :     0.719073
      dz2     :     0.012591  d :     0.059467
      dxz     :     0.012781
      dyz     :     0.010042
      dx2y2   :     0.011401
      dxy     :     0.012652

  3 B s       :     2.880269  s :     2.880269
      pz      :     0.634448  p :     2.047302
      px      :     0.727577
      py      :     0.685277
      dz2     :     0.013627  d :     0.059471
      dxz     :     0.012142
      dyz     :     0.012426
      dx2y2   :     0.011193
      dxy     :     0.010082

  4 B s       :     2.772996  s :     2.772996
      pz      :     0.760928  p :     2.178784
      px      :     0.732386
      py      :     0.685469
      dz2     :     0.009780  d :     0.061199
      dxz     :     0.013518
      dyz     :     0.013588
      dx2y2   :     0.012766
      dxy     :     0.011548

  5 B s       :     2.880266  s :     2.880266
      pz      :     0.691872  p :     2.047306
      px      :     0.636323
      py      :     0.719111
      dz2     :     0.012593  d :     0.059470
      dxz     :     0.012782
      dyz     :     0.010043
      dx2y2   :     0.011401
      dxy     :     0.012652

  6 B s       :     2.880238  s :     2.880238
      pz      :     0.634428  p :     2.047256
      px      :     0.727566
      py      :     0.685262
      dz2     :     0.013627  d :     0.059469
      dxz     :     0.012142
      dyz     :     0.012426
      dx2y2   :     0.011192
      dxy     :     0.010081

  7 B s       :     2.773017  s :     2.773017
      pz      :     0.760943  p :     2.178840
      px      :     0.732403
      py      :     0.685494
      dz2     :     0.009780  d :     0.061202
      dxz     :     0.013518
      dyz     :     0.013589
      dx2y2   :     0.012766
      dxy     :     0.011548

  8 B s       :     2.880205  s :     2.880205
      pz      :     0.691852  p :     2.047215
      px      :     0.636274
      py      :     0.719089
      dz2     :     0.012592  d :     0.059467
      dxz     :     0.012781
      dyz     :     0.010042
      dx2y2   :     0.011400
      dxy     :     0.012652

  9 B s       :     2.773011  s :     2.773011
      pz      :     0.686826  p :     2.178789
      px      :     0.762412
      py      :     0.729552
      dz2     :     0.013307  d :     0.061201
      dxz     :     0.011931
      dyz     :     0.011912
      dx2y2   :     0.013858
      dxy     :     0.010193

 10 B s       :     2.773057  s :     2.773057
      pz      :     0.760919  p :     2.178801
      px      :     0.732385
      py      :     0.685497
      dz2     :     0.009780  d :     0.061204
      dxz     :     0.013518
      dyz     :     0.013590
      dx2y2   :     0.012767
      dxy     :     0.011549

 11 B s       :     2.880338  s :     2.880338
      pz      :     0.691871  p :     2.047298
      px      :     0.636321
      py      :     0.719106
      dz2     :     0.012592  d :     0.059471
      dxz     :     0.012781
      dyz     :     0.010043
      dx2y2   :     0.011402
      dxy     :     0.012653



                     *******************************
                     * LOEWDIN POPULATION ANALYSIS *
                     *******************************

----------------------
LOEWDIN ATOMIC CHARGES
----------------------
   0 B :    0.041218
   1 B :    0.041169
   2 B :   -0.041110
   3 B :   -0.041215
   4 B :    0.041232
   5 B :   -0.041226
   6 B :   -0.041149
   7 B :    0.041162
   8 B :   -0.041099
   9 B :    0.041194
  10 B :    0.041124
  11 B :   -0.041299

-------------------------------
LOEWDIN REDUCED ORBITAL CHARGES
-------------------------------
  0 B s       :     2.623003  s :     2.623003
      pz      :     0.698752  p :     2.185617
      px      :     0.760763
      py      :     0.726102
      dz2     :     0.031120  d :     0.150162
      dxz     :     0.032339
      dyz     :     0.022776
      dx2y2   :     0.036435
      dxy     :     0.027492

  1 B s       :     2.623009  s :     2.623009
      pz      :     0.759755  p :     2.185659
      px      :     0.738861
      py      :     0.687043
      dz2     :     0.022514  d :     0.150164
      dxz     :     0.036230
      dyz     :     0.036865
      dx2y2   :     0.032519
      dxy     :     0.022036

  2 B s       :     2.708277  s :     2.708277
      pz      :     0.732573  p :     2.186219
      px      :     0.718068
      py      :     0.735578
      dz2     :     0.033960  d :     0.146615
      dxz     :     0.026814
      dyz     :     0.027481
      dx2y2   :     0.023923
      dxy     :     0.034438

  3 B s       :     2.708279  s :     2.708279
      pz      :     0.716462  p :     2.186314
      px      :     0.742612
      py      :     0.727240
      dz2     :     0.032407  d :     0.146622
      dxz     :     0.032683
      dyz     :     0.023692
      dx2y2   :     0.030539
      dxy     :     0.027301

  4 B s       :     2.622995  s :     2.622995
      pz      :     0.759763  p :     2.185611
      px      :     0.738850
      py      :     0.686999
      dz2     :     0.022515  d :     0.150161
      dxz     :     0.036230
      dyz     :     0.036864
      dx2y2   :     0.032517
      dxy     :     0.022036

  5 B s       :     2.708285  s :     2.708285
      pz      :     0.732607  p :     2.186319
      px      :     0.718109
      py      :     0.735604
      dz2     :     0.033964  d :     0.146622
      dxz     :     0.026816
      dyz     :     0.027482
      dx2y2   :     0.023921
      dxy     :     0.034438

  6 B s       :     2.708266  s :     2.708266
      pz      :     0.716437  p :     2.186264
      px      :     0.742603
      py      :     0.727224
      dz2     :     0.032406  d :     0.146619
      dxz     :     0.032682
      dyz     :     0.023692
      dx2y2   :     0.030538
      dxy     :     0.027300

  7 B s       :     2.623004  s :     2.623004
      pz      :     0.759776  p :     2.185667
      px      :     0.738862
      py      :     0.687028
      dz2     :     0.022515  d :     0.150167
      dxz     :     0.036232
      dyz     :     0.036866
      dx2y2   :     0.032517
      dxy     :     0.022037

  8 B s       :     2.708259  s :     2.708259
      pz      :     0.732579  p :     2.186223
      px      :     0.718057
      py      :     0.735587
      dz2     :     0.033962  d :     0.146617
      dxz     :     0.026815
      dyz     :     0.027481
      dx2y2   :     0.023921
      dxy     :     0.034438

  9 B s       :     2.623006  s :     2.623006
      pz      :     0.698759  p :     2.185637
      px      :     0.760768
      py      :     0.726110
      dz2     :     0.031121  d :     0.150164
      dxz     :     0.032339
      dyz     :     0.022776
      dx2y2   :     0.036436
      dxy     :     0.027492

 10 B s       :     2.623014  s :     2.623014
      pz      :     0.759763  p :     2.185694
      px      :     0.738867
      py      :     0.687064
      dz2     :     0.022514  d :     0.150168
      dxz     :     0.036232
      dyz     :     0.036866
      dx2y2   :     0.032519
      dxy     :     0.022036

 11 B s       :     2.708315  s :     2.708315
      pz      :     0.732616  p :     2.186362
      px      :     0.718143
      py      :     0.735603
      dz2     :     0.033962  d :     0.146623
      dxz     :     0.026815
      dyz     :     0.027482
      dx2y2   :     0.023923
      dxy     :     0.034439



                      *****************************
                      * MAYER POPULATION ANALYSIS *
                      *****************************

  NA   - Mulliken gross atomic population
  ZA   - Total nuclear charge
  QA   - Mulliken gross atomic charge
  VA   - Mayer's total valence
  BVA  - Mayer's bonded valence
  FA   - Mayer's free valence

  ATOM       NA         ZA         QA         VA         BVA        FA
  0 B      5.0130     5.0000    -0.0130     4.1171     4.1171    -0.0000
  1 B      5.0130     5.0000    -0.0130     4.1171     4.1171    -0.0000
  2 B      4.9869     5.0000     0.0131     3.4949     3.4949    -0.0000
  3 B      4.9870     5.0000     0.0130     3.4951     3.4951    -0.0000
  4 B      5.0130     5.0000    -0.0130     4.1172     4.1172    -0.0000
  5 B      4.9870     5.0000     0.0130     3.4950     3.4950    -0.0000
  6 B      4.9870     5.0000     0.0130     3.4950     3.4950    -0.0000
  7 B      5.0131     5.0000    -0.0131     4.1172     4.1172    -0.0000
  8 B      4.9869     5.0000     0.0131     3.4950     3.4950    -0.0000
  9 B      5.0130     5.0000    -0.0130     4.1171     4.1171     0.0000
 10 B      5.0131     5.0000    -0.0131     4.1172     4.1172    -0.0000
 11 B      4.9871     5.0000     0.0129     3.4949     3.4949     0.0000

  Mayer bond orders larger than 0.100000
B(  0-B ,  1-B ) :   0.7132 B(  0-B ,  2-B ) :   0.5791 B(  0-B ,  3-B ) :   0.1042 
B(  0-B ,  4-B ) :   0.1080 B(  0-B ,  5-B ) :   0.5792 B(  0-B ,  6-B ) :   0.8301 
B(  0-B ,  7-B ) :   0.7132 B(  0-B ,  9-B ) :   0.1908 B(  0-B , 10-B ) :   0.1080 
B(  1-B ,  2-B ) :   0.5791 B(  1-B ,  3-B ) :   0.5791 B(  1-B ,  4-B ) :   0.1080 
B(  1-B ,  5-B ) :   0.1042 B(  1-B ,  7-B ) :   0.7133 B(  1-B ,  8-B ) :   0.8300 
B(  1-B ,  9-B ) :   0.1080 B(  1-B , 10-B ) :   0.1909 B(  2-B ,  3-B ) :   0.1922 
B(  2-B ,  4-B ) :   0.8299 B(  2-B ,  5-B ) :   0.1922 B(  2-B ,  6-B ) :   0.2834 
B(  2-B ,  7-B ) :   0.1042 B(  2-B ,  8-B ) :   0.2835 B(  2-B , 11-B ) :   0.2600 
B(  3-B ,  5-B ) :   0.1922 B(  3-B ,  6-B ) :   0.2599 B(  3-B ,  7-B ) :   0.5793 
B(  3-B ,  8-B ) :   0.2834 B(  3-B ,  9-B ) :   0.8301 B(  3-B , 11-B ) :   0.2834 
B(  4-B ,  6-B ) :   0.5793 B(  4-B ,  7-B ) :   0.1908 B(  4-B ,  8-B ) :   0.5792 
B(  4-B ,  9-B ) :   0.7132 B(  4-B , 10-B ) :   0.7133 B(  4-B , 11-B ) :   0.1042 
B(  5-B ,  6-B ) :   0.2834 B(  5-B ,  7-B ) :   0.5792 B(  5-B ,  8-B ) :   0.2599 
B(  5-B , 10-B ) :   0.8300 B(  5-B , 11-B ) :   0.2835 B(  6-B ,  8-B ) :   0.1922 
B(  6-B ,  9-B ) :   0.1042 B(  6-B , 10-B ) :   0.5791 B(  6-B , 11-B ) :   0.1922 
B(  7-B ,  9-B ) :   0.1080 B(  7-B , 10-B ) :   0.1080 B(  7-B , 11-B ) :   0.8300 
B(  8-B ,  9-B ) :   0.5792 B(  8-B , 10-B ) :   0.1042 B(  8-B , 11-B ) :   0.1922 
B(  9-B , 10-B ) :   0.7132 B(  9-B , 11-B ) :   0.5791 B( 10-B , 11-B ) :   0.5791 


-------
TIMINGS
-------

Total SCF time: 0 days 0 hours 0 min 14 sec 

Total time                  ....      14.387 sec
Sum of individual times     ....      13.752 sec  ( 95.6%)

SCF preparation             ....       1.235 sec  (  8.6%)
Fock matrix formation       ....      10.981 sec  ( 76.3%)
  Startup                   ....       0.041 sec  (  0.4% of F)
  Split-RI-J                ....       3.167 sec  ( 28.8% of F)
[...]
      dz2     :     0.011793  d :     0.073819
      dxz     :     0.015821
      dyz     :     0.016528
      dx2y2   :     0.015738
      dxy     :     0.013939

  5 B s       :     2.840056  s :     2.840056
      pz      :     0.716805  p :     2.120904
      px      :     0.650289
      py      :     0.753810
      dz2     :     0.013878  d :     0.068044
      dxz     :     0.015072
      dyz     :     0.011291
      dx2y2   :     0.012961
      dxy     :     0.014841

  6 B s       :     2.840074  s :     2.840074
      pz      :     0.646881  p :     2.120732
      px      :     0.753552
      py      :     0.720299
      dz2     :     0.016525  d :     0.068005
      dxz     :     0.013991
      dyz     :     0.014434
      dx2y2   :     0.012419
      dxy     :     0.010635

  7 B s       :     2.520744  s :     2.520744
      pz      :     0.843975  p :     2.375205
      px      :     0.798900
      py      :     0.732330
      dz2     :     0.011824  d :     0.073933
      dxz     :     0.015861
      dyz     :     0.016548
      dx2y2   :     0.015752
      dxy     :     0.013949

  8 B s       :     2.839631  s :     2.839631
      pz      :     0.716395  p :     2.120440
      px      :     0.650201
      py      :     0.753845
      dz2     :     0.013884  d :     0.068038
      dxz     :     0.015072
      dyz     :     0.011277
      dx2y2   :     0.012970
      dxy     :     0.014836

  9 B s       :     2.522510  s :     2.522510
      pz      :     0.729386  p :     2.374573
      px      :     0.844963
      py      :     0.800224
      dz2     :     0.016000  d :     0.073852
      dxz     :     0.014486
      dyz     :     0.014405
      dx2y2   :     0.016642
      dxy     :     0.012319

 10 B s       :     2.522159  s :     2.522159
      pz      :     0.843646  p :     2.374479
      px      :     0.798559
      py      :     0.732274
      dz2     :     0.011809  d :     0.073896
      dxz     :     0.015851
      dyz     :     0.016543
      dx2y2   :     0.015747
      dxy     :     0.013946

 11 B s       :     2.846407  s :     2.846407
      pz      :     0.715245  p :     2.116436
      px      :     0.649122
      py      :     0.752069
      dz2     :     0.013854  d :     0.067949
      dxz     :     0.015068
      dyz     :     0.011254
      dx2y2   :     0.012953
      dxy     :     0.014821



                     *******************************
                     * LOEWDIN POPULATION ANALYSIS *
                     *******************************

----------------------
LOEWDIN ATOMIC CHARGES
----------------------
   0 B :    0.037368
   1 B :    0.037598
   2 B :   -0.037942
   3 B :   -0.037264
   4 B :    0.037763
   5 B :   -0.037547
   6 B :   -0.037233
   7 B :    0.037747
   8 B :   -0.037483
   9 B :    0.037343
  10 B :    0.037642
  11 B :   -0.037993

-------------------------------
LOEWDIN REDUCED ORBITAL CHARGES
-------------------------------
  0 B s       :     2.572068  s :     2.572068
      pz      :     0.680864  p :     2.204509
      px      :     0.780414
      py      :     0.743231
      dz2     :     0.037994  d :     0.186055
      dxz     :     0.039180
      dyz     :     0.027946
      dx2y2   :     0.046256
      dxy     :     0.034679

  1 B s       :     2.572014  s :     2.572014
      pz      :     0.782845  p :     2.204320
      px      :     0.745529
      py      :     0.675945
      dz2     :     0.030004  d :     0.186068
      dxz     :     0.044965
      dyz     :     0.044465
      dx2y2   :     0.038638
      dxy     :     0.027995

  2 B s       :     2.666235  s :     2.666235
      pz      :     0.729298  p :     2.199002
      px      :     0.720123
      py      :     0.749581
      dz2     :     0.038142  d :     0.172705
      dxz     :     0.032510
      dyz     :     0.032992
      dx2y2   :     0.028421
      dxy     :     0.040640

  3 B s       :     2.665772  s :     2.665772
      pz      :     0.723764  p :     2.198884
      px      :     0.731701
      py      :     0.743418
      dz2     :     0.039829  d :     0.172608
      dxz     :     0.038196
      dyz     :     0.027815
      dx2y2   :     0.036260
      dxy     :     0.030509

  4 B s       :     2.571950  s :     2.571950
      pz      :     0.782835  p :     2.204254
      px      :     0.745513
      py      :     0.675907
      dz2     :     0.029999  d :     0.186033
      dxz     :     0.044958
      dyz     :     0.044458
      dx2y2   :     0.038631
      dxy     :     0.027987

  5 B s       :     2.666224  s :     2.666224
      pz      :     0.729310  p :     2.198728
      px      :     0.720024
      py      :     0.749394
      dz2     :     0.038113  d :     0.172594
      dxz     :     0.032507
      dyz     :     0.032969
      dx2y2   :     0.028369
      dxy     :     0.040636

  6 B s       :     2.666139  s :     2.666139
      pz      :     0.723973  p :     2.198580
      px      :     0.731252
      py      :     0.743355
      dz2     :     0.039814  d :     0.172515
      dxz     :     0.038211
      dyz     :     0.027812
      dx2y2   :     0.036208
      dxy     :     0.030469

  7 B s       :     2.571613  s :     2.571613
      pz      :     0.783530  p :     2.204355
      px      :     0.745706
      py      :     0.675119
      dz2     :     0.030089  d :     0.186285
      dxz     :     0.045050
      dyz     :     0.044498
      dx2y2   :     0.038627
      dxy     :     0.028021

  8 B s       :     2.666269  s :     2.666269
      pz      :     0.729193  p :     2.198618
      px      :     0.720267
      py      :     0.749158
      dz2     :     0.038141  d :     0.172596
      dxz     :     0.032500
      dyz     :     0.032945
      dx2y2   :     0.028405
      dxy     :     0.040605

  9 B s       :     2.572015  s :     2.572015
      pz      :     0.680576  p :     2.204543
      px      :     0.780675
      py      :     0.743292
      dz2     :     0.037996  d :     0.186099
      dxz     :     0.039146
      dyz     :     0.027952
      dx2y2   :     0.046301
      dxy     :     0.034704

 10 B s       :     2.571892  s :     2.571892
      pz      :     0.783386  p :     2.204283
      px      :     0.745650
      py      :     0.675247
      dz2     :     0.030052  d :     0.186183
      dxz     :     0.045021
      dyz     :     0.044480
      dx2y2   :     0.038617
      dxy     :     0.028012

 11 B s       :     2.667408  s :     2.667408
      pz      :     0.729094  p :     2.198238
      px      :     0.720852
      py      :     0.748292
      dz2     :     0.038066  d :     0.172346
      dxz     :     0.032470
      dyz     :     0.032873
      dx2y2   :     0.028342
      dxy     :     0.040596



                      *****************************
                      * MAYER POPULATION ANALYSIS *
                      *****************************

  NA   - Mulliken gross atomic population
  ZA   - Total nuclear charge
  QA   - Mulliken gross atomic charge
  VA   - Mayer's total valence
  BVA  - Mayer's bonded valence
  FA   - Mayer's free valence

  ATOM       NA         ZA         QA         VA         BVA        FA
  0 B      4.9716     5.0000     0.0284     4.3326     4.3326    -0.0000
  1 B      4.9720     5.0000     0.0280     4.3351     4.3351    -0.0000
  2 B      5.0272     5.0000    -0.0272     3.7610     3.7610    -0.0000
  3 B      5.0287     5.0000    -0.0287     3.7685     3.7685    -0.0000
  4 B      4.9724     5.0000     0.0276     4.3367     4.3367     0.0000
  5 B      5.0290     5.0000    -0.0290     3.7660     3.7660    -0.0000
  6 B      5.0288     5.0000    -0.0288     3.7681     3.7681    -0.0000
  7 B      4.9699     5.0000     0.0301     4.3319     4.3319     0.0000
  8 B      5.0281     5.0000    -0.0281     3.7651     3.7651    -0.0000
  9 B      4.9709     5.0000     0.0291     4.3309     4.3309    -0.0000
 10 B      4.9705     5.0000     0.0295     4.3317     4.3317    -0.0000
 11 B      5.0308     5.0000    -0.0308     3.7630     3.7630    -0.0000

  Mayer bond orders larger than 0.100000
B(  0-B ,  1-B ) :   0.7074 B(  0-B ,  2-B ) :   0.5504 B(  0-B ,  3-B ) :   0.1763 
B(  0-B ,  4-B ) :   0.1454 B(  0-B ,  5-B ) :   0.5502 B(  0-B ,  6-B ) :   0.8413 
B(  0-B ,  7-B ) :   0.7069 B(  0-B ,  8-B ) :   0.1604 B(  0-B ,  9-B ) :   0.1893 
B(  0-B , 10-B ) :   0.1450 B(  0-B , 11-B ) :   0.1601 B(  1-B ,  2-B ) :   0.5522 
B(  1-B ,  3-B ) :   0.5522 B(  1-B ,  4-B ) :   0.1456 B(  1-B ,  5-B ) :   0.1765 
B(  1-B ,  6-B ) :   0.1604 B(  1-B ,  7-B ) :   0.7059 B(  1-B ,  8-B ) :   0.8404 
B(  1-B ,  9-B ) :   0.1452 B(  1-B , 10-B ) :   0.1892 B(  1-B , 11-B ) :   0.1601 
B(  2-B ,  3-B ) :   0.2594 B(  2-B ,  4-B ) :   0.8392 B(  2-B ,  5-B ) :   0.2596 
B(  2-B ,  6-B ) :   0.2458 B(  2-B ,  7-B ) :   0.1752 B(  2-B ,  8-B ) :   0.2457 
B(  2-B ,  9-B ) :   0.1598 B(  2-B , 10-B ) :   0.1592 B(  2-B , 11-B ) :   0.3144 
B(  3-B ,  4-B ) :   0.1602 B(  3-B ,  5-B ) :   0.2598 B(  3-B ,  6-B ) :   0.3118 
B(  3-B ,  7-B ) :   0.5554 B(  3-B ,  8-B ) :   0.2467 B(  3-B ,  9-B ) :   0.8413 
B(  3-B , 10-B ) :   0.1593 B(  3-B , 11-B ) :   0.2461 B(  4-B ,  5-B ) :   0.1599 
B(  4-B ,  6-B ) :   0.5539 B(  4-B ,  7-B ) :   0.1893 B(  4-B ,  8-B ) :   0.5538 
B(  4-B ,  9-B ) :   0.7073 B(  4-B , 10-B ) :   0.7061 B(  4-B , 11-B ) :   0.1763 
B(  5-B ,  6-B ) :   0.2465 B(  5-B ,  7-B ) :   0.5548 B(  5-B ,  8-B ) :   0.3127 
B(  5-B ,  9-B ) :   0.1595 B(  5-B , 10-B ) :   0.8400 B(  5-B , 11-B ) :   0.2464 
B(  6-B ,  7-B ) :   0.1593 B(  6-B ,  8-B ) :   0.2595 B(  6-B ,  9-B ) :   0.1757 
B(  6-B , 10-B ) :   0.5529 B(  6-B , 11-B ) :   0.2611 B(  7-B ,  8-B ) :   0.1592 
B(  7-B ,  9-B ) :   0.1447 B(  7-B , 10-B ) :   0.1447 B(  7-B , 11-B ) :   0.8366 
B(  8-B ,  9-B ) :   0.5504 B(  8-B , 10-B ) :   0.1756 B(  8-B , 11-B ) :   0.2609 
B(  9-B , 10-B ) :   0.7081 B(  9-B , 11-B ) :   0.5495 B( 10-B , 11-B ) :   0.5515 


-------
TIMINGS
-------

Total SCF time: 0 days 0 hours 0 min 4 sec 

Total time                  ....       4.827 sec
Sum of individual times     ....       4.420 sec  ( 91.6%)

SCF preparation             ....       0.542 sec  ( 11.2%)
Fock matrix formation       ....       3.330 sec  ( 69.0%)
  Startup                   ....       0.009 sec  (  0.3% of F)
  Split-RI-J                ....       1.207 sec  ( 36.2% of F)
  XC integration            ....       2.177 sec  ( 65.4% of F)
    XC Preparation          ....       0.000 sec  (  0.0% of XC)
    Basis function eval.    ....       0.535 sec  ( 24.6% of XC)
    Density eval.           ....       0.461 sec  ( 21.2% of XC)
    XC-Functional eval.     ....       0.054 sec  (  2.5% of XC)
    XC-Potential eval.      ....       0.470 sec  ( 21.6% of XC)
Diagonalization             ....       0.000 sec  (  0.0%)
Density matrix formation    ....       0.046 sec  (  0.9%)
Total Energy calculation    ....       0.118 sec  (  2.4%)
Population analysis         ....       0.057 sec  (  1.2%)
Orbital Transformation      ....       0.016 sec  (  0.3%)
Orbital Orthonormalization  ....       0.000 sec  (  0.0%)
DIIS solution               ....       0.026 sec  (  0.5%)
SOSCF solution              ....       0.284 sec  (  5.9%)
Finished LeanSCF after   4.9 sec

Maximum memory used throughout the entire LEANSCF-calculation: 10.6 MB

-------------------------   --------------------
FINAL SINGLE POINT ENERGY      -297.596827308831
-------------------------   --------------------

                                *** OPTIMIZATION RUN DONE ***



           ************************************************************
           *        Program running with 8 parallel MPI-processes     *
           *              working on a common directory               *
           ************************************************************

------------------------------------------------------------------------------
                              ORCA PROPERTY CALCULATIONS
------------------------------------------------------------------------------

GBWName                                 ... test.gbw
Number of atoms                         ...     12
Number of basis functions               ...    168
Max core memory                         ...   2500 MB

Electric properties:
Dipole moment                           ... YES
Quadrupole moment                       ...  NO
Static polarizability (Dipole/Dipole)   ...  NO
Static polarizability (Dipole/Quad.)    ...  NO
Static polarizability (Quad./Quad.)     ...  NO
Static polarizability (Velocity)        ...  NO
Static hyperpolarizability              ...  NO

Atomic electric properties:
Dipole moment                           ...  NO
Quadrupole moment                       ...  NO
Static polarizability                   ...  NO

Choice of electric origin               ... Center of mass
Position of electric origin             ...    -0.000000     0.000000     0.000000

General magnetic properties:
Magnetizability                         ...  NO

EPR properties:
g-Tensor (aka g-matrix)                 ...  NO
Zero-Field splitting spin-orbit         ...  NO
Zero-field splitting spin-spin          ...  NO
Hyperfine couplings                     ...  NO (   0 nuclei)
Quadrupole couplings                    ...  NO (   0 nuclei)
Contact density                         ...  NO (   0 nuclei)

NMR properties:
Chemical shifts                         ...  NO (   0 nuclei)
Spin-rotation constants                 ...  NO (   0 nuclei)
Spin-spin couplings                     ...  NO (   0 nuclei,    0 pairs)

Choice of magnetic origin               ... GIAO
Position of magnetic origin             ...     0.000000     0.000000     0.000000

Properties with geometric perturbations:
SCF Hessian                             ...  NO
IR spectrum                             ...  NO
VCD spectrum                            ...  NO
X-ray spectroscopy properties:
SCF XES/XAS/RIXS spectra                ...  NO

SCF SOC stabilization energy            ...  NO
Diagonal Born-Oppenheimer correction    ...  NO

-------------
DIPOLE MOMENT
-------------

Method             : SCF
Type of density    : Electron Density
Multiplicity       :   1
Irrep              :   0
Energy             :  -297.5968273088311662 Eh
Basis              : AO
                                X                 Y                 Z
Electronic contribution:     -0.001554082      -0.000868000      -0.000629156
Nuclear contribution   :      0.000000000       0.000000000       0.000000000
                        -----------------------------------------
Total Dipole Moment    :     -0.001554082      -0.000868000      -0.000629156
                        -----------------------------------------
Magnitude (a.u.)       :      0.001887970
Magnitude (Debye)      :      0.004798838



--------------------
Rotational spectrum 
--------------------
 
Rotational constants in cm-1:             0.074439             0.074383             0.070770 
Rotational constants in MHz :          2231.625204          2229.958684          2121.634655 

Dipole components along the rotational axes: 
x,y,z [a.u.] :    -0.001579     0.000033    -0.001034 
x,y,z [Debye]:    -0.004014     0.000083    -0.002629 

 

Dipole moment calculation done in   0.0 sec 

Maximum memory used throughout the entire PROP-calculation: 8.3 MB

--------------------------------
SUGGESTED CITATIONS FOR THIS RUN
--------------------------------

Below you find a list of papers that are relevant to this ORCA run
We neither can nor want to force you to cite these papers, but we appreciate if you do
You receive ORCA, which is the product of decades of hard work by many enthusiastic individuals, for free
The only thing we kindly ask in return is that you cite our papers,
We deeply appreciate it, if you show your appreciation for ORCA by not just citing the generic ORCA reference.

Please note that relegating all ORCA citations to the supporting information does *not* help us.
SI sections are not indexed - citations you put there will not count into any citation statistics
But we need these citations in order to attract the funding resources that allow us to do what we are doing

Therefore, if you are a happy ORCA user, please consider citing a few of the papers listed below in the main body of your paper

In addition to the list printed below, the program has created the file test.bibtex that contains the list in bibtex format
You can import this file easily into all common literature databanks and citation aid programs

It goes without saying that in many instances, there are alternative algorithms to achieve similar
results as the ones you have gotten from ORCA. It is, of course, also the case that in some instances
ORCA just re-implements algorithms worked out by others. We are fully aware of that and we are also
fully appreciative of our colleagues work. Hence this citation list should not be read as indicating
that the listed papers, which are focused on our own work, are the only ones worth citing. It simply
meant to make it easier for users to cite ORCA specific papers. It is not a substitute for doing your
own literature research and citing the relevant literature in a scientifically appropriate manner.

List of essential papers. We consider these as the minimum necessary citations

  1. Neese, F.
     Software update: the ORCA program system, version 6.0
     WIRES Comput. Molec. Sci. 2025 15(1), e70019
     doi.org/10.1002/wcms.70019

List of papers to cite with high priority. The work reported in these papers was absolutely
necessary for this run to complete.
Our perspective: the developers of density functionals and basis sets usually get cited in chemistry papers
Good! But without the algorithms to do something with them, the functionals or basis sets would not do anything.
Hence, in our opinion, the algorithm design and method developments papers are equally worthy of getting cited

  1. Neese, F.
     An improvement of the resolution of the identity approximation for the formation of the Coulomb matrix
     J. Comp. Chem. 2003 24(14), 1740-1747
     doi.org/10.1002/jcc.10318
  2. Neese, F.
     The SHARK Integral Generation and Digestion System
     J. Comp. Chem. 2022 44(3), 381
     doi.org/10.1002/jcc.26942

List of suggested additional citations. These are papers that are important in the 'surrounding' of 
of this run, or papers that preceded the highly important papers. If you like your results we are grateful for a citation.

  1. Neese, F.
     The ORCA program system
     WIRES Comput. Molec. Sci. 2012 2(1), 73-78
     doi.org/10.1002/wcms.81
  2. Neese, F.
     Software update: the ORCA program system, version 4.0
     WIRES Comput. Molec. Sci. 2018 8(1), 1-6
     doi.org/10.1002/wcms.1327
  3. Neese, F.; Wennmohs, F.; Becker, U.; Riplinger, C.
     The ORCA quantum chemistry program package
     J. Chem. Phys. 2020 152(22), 224108
     doi.org/10.1063/5.0004608
  4. Neese, F.
     Software update: The ORCA program system—Version 5.0
     WIRES Comput. Molec. Sci. 2022 12(1), e1606
     doi.org/10.1002/wcms.1606

List of optional additional citations

  1. Neese, F.
     Approximate second-order SCF convergence for spin unrestricted wavefunctions
     Chem. Phys. Lett. 2000 325(1-3), 93-98
     doi.org/10.1016/s0009-2614(00)00662-x

Timings for individual modules:

Sum of individual times          ...      114.377 sec (=   1.906 min)
Startup calculation              ...       18.101 sec (=   0.302 min)  15.8 %
SCF iterations                   ...       75.574 sec (=   1.260 min)  66.1 %
Property calculations            ...        0.761 sec (=   0.013 min)   0.7 %
SCF Gradient evaluation          ...       19.420 sec (=   0.324 min)  17.0 %
Geometry relaxation              ...        0.522 sec (=   0.009 min)   0.5 %
                             ****ORCA TERMINATED NORMALLY****
TOTAL RUN TIME: 0 days 0 hours 2 minutes 1 seconds 294 msec
