
                                 *****************
                                 * O   R   C   A *
                                 *****************

                                            #,                                       
                                            ###                                      
                                            ####                                     
                                            #####                                    
                                            ######                                   
                                           ########,                                 
                                     ,,################,,,,,                         
                               ,,#################################,,                 
                          ,,##########################################,,             
                       ,#########################################, ''#####,          
                    ,#############################################,,   '####,        
                  ,##################################################,,,,####,       
                ,###########''''           ''''###############################       
              ,#####''   ,,,,##########,,,,          '''####'''          '####       
            ,##' ,,,,###########################,,,                        '##       
           ' ,,###''''                  '''############,,,                           
         ,,##''                                '''############,,,,        ,,,,,,###''
      ,#''                                            '''#######################'''  
     '                                                          ''''####''''         
             ,#######,   #######,   ,#######,      ##                                
            ,#'     '#,  ##    ##  ,#'     '#,    #''#        ,####,    ,#,          
            ##       ##  ##   ,#'  ##            #'  '#       #'       ,# #          
            ##       ##  #######   ##           ,######,      #####,      #          
            '#,     ,#'  ##    ##  '#,     ,#' ,#      #,     #,   #      #          
             '#######'   ##     ##  '#######'  #'      '#     '####' #    #          



                #########################################################
                #                        -***-                          #
                #          Department of theory and spectroscopy        #
                #                                                       #
                #                      Frank Neese                      #
                #                                                       #
                #     Directorship, Architecture, Infrastructure        #
                #                    SHARK, DRIVERS                     #
                #        Core code/Algorithms in most modules           #
                #                                                       #
                #        Max Planck Institute fuer Kohlenforschung      #
                #                Kaiser Wilhelm Platz 1                 #
                #                 D-45470 Muelheim/Ruhr                 #
                #                      Germany                          #
                #                                                       #
                #                  All rights reserved                  #
                #                        -***-                          #
                #########################################################


                         Program Version 6.1.1  -  RELEASE   -
                                (GIT: $487d211c$)
                          ($2025-11-21 10:33:24 +0100$)
                                                                         
                                  - NO-DMRG VERSION -                    
                                                                         


 With contributions from (in alphabetic order):
[Max-Planck-Institut fuer Kohlenforschung]                               
  Daniel Aravena         : Magnetic Suceptibility                        
  Michael Atanasov       : Ab Initio Ligand Field Theory (pilot matlab implementation)
  Alexander A. Auer      : GIAO ZORA, VPT2 properties, NMR spectrum      
  Ute Becker             : All parallelization in ORCA, NUMFREQ, NUMCALC 
  Giovanni Bistoni       : ED, misc. LED, open-shell LED, HFLD           
  Dmytro Bykov           : pre 5.0 version of the SCF Hessian            
  Marcos Casanova-Páez   : Triplet and SCS-CIS(D). UHF-(DLPNO)-IP/EA/STEOM-CCSD. UHF-CVS-IP/STEOM-CCSD   
  Vijay G. Chilkuri      : MRCI spin determinant printing, contributions to CSF-ICE 
  Pauline Colinet        : FMM embedding                                 
  Dipayan Datta          : RHF DLPNO-CCSD density                        
  Achintya Kumar Dutta   : EOM-CC, STEOM-CC                              
  Nicolas Foglia         : Exact transition moments, OPA infrastructure, MCD improvements    
  Dmitry Ganyushin       : Spin-Orbit,Spin-Spin,Magnetic field MRCI      
  Miquel Garcia-Rates    : C-PCM and meta-GGA Hessian, CCSD/C-PCM, Gaussian charge scheme 
  Tiago L. C. Gouveia    : GS-ROHF, GS-ROCIS                             
  Yang Guo               : DLPNO-NEVPT2, F12-NEVPT2, CIM, IAO-localization        
  Andreas Hansen         : Spin unrestricted coupled pair/coupled cluster methods 
  Ingolf Harden          : AUTO-CI MPn and infrastructure                
  Benjamin Helmich-Paris : MC-RPA, TRAH-(SCF,CASSCF), AVAS, COSX integrals, SCF dyn. polar., MC-PDFT, srDFT 
  Lee Huntington         : MR-EOM, pCC                                   
  Robert Izsak           : Overlap fitted RIJCOSX, COSX-SCS-MP3, EOM     
  Riya Kayal             : Wick's Theorem for AUTO-CI, AUTO-CI UHF-CCSDT 
  Emily Kempfer          : AUTO-CI RHF CISDT and CCSDT, approximate NEVPT4
  Christian Kollmar      : KDIIS, OOCD, Brueckner-CCSD(T), CCSD density, CASPT2, CASPT2-K, improved NEVPT2 
  Axel Koslowski         : Symmetry handling                             
  Simone Kossmann        : meta-GGA functionals, TD-DFT gradient, OOMP2, (MP2 Hessian; deprecated post 5.0) 
  Lucas Lang             : DCDCAS, Hyperfine gauge corrections, ICE-SOC+SSC
  Marvin Lechner         : AUTO-CI (C++ implementation), FIC-MRCC        
  Spencer Leger          : CASSCF response                               
  Dagmar Lenk            : GEPOL surface, SMD, ORCA-2-JSON               
  Dimitrios Liakos       : Extrapolation schemes; Compound Job, Property file
  Dimitrios Manganas     : Further ROCIS development; embedding schemes. LFT, Crystal Embedding 
  Dimitrios Pantazis     : SARC Basis sets                               
  Anastasios Papadopoulos: AUTO-CI, single reference methods and gradients 
  Taras Petrenko         : pre 6.0 DFT Hessian and TD-DFT gradient,  ECA, NRVS 
  Petra Pikulova         : Analytic Raman intensities                    
  Peter Pinski           : DLPNO-MP2, DLPNO-MP2 Gradient                 
  Shashank Vittal Rao    : ES-AILFT, MagRelax                            
  Christoph Reimann      : Effective Core Potentials                     
  Marius Retegan         : Local ZFS, SOC                                
  Christoph Riplinger    : Optimizer, TS searches, QM/MM, DLPNO-CCSD(T), (RO)-DLPNO pert. Triples 
  Michael Roemelt        : Original ROCIS implementation, recursive CI coupling coefficients
  Masaaki Saitow         : Open-shell DLPNO-CCSD energy and density      
  Barbara Sandhoefer     : DKH picture change effects                    
  Yorick L. A. Schmerwitz: GMF and freeze-and-release deltaSCF, NEB S-IDPP initial path                    
  Kantharuban Sivalingam : CASSCF convergence/infrastructure, NEVPT2, NEVPT3, NEVPT4(SD), FIC-MRCI and CEPA variants
  Bernardo de Souza      : ESD, SOC TD-DFT                               
  Georgi L. Stoychev     : AutoAux, RI-MP2 NMR, DLPNO-MP2 response, X2C  
  Van Anh Tran           : RI-MP2 g-tensors                              
  Willem Van den Heuvel  : Paramagnetic NMR                              
  Zikuan Wang            : NOTCH, Electric field optimization            
  Frank Wennmohs         : Technical directorship and infrastructure     
  Hang Xu                : AUTO-CI-Response properties                   
                                                                         
[FACCTs GmbH]                                                            
  Markus Bursch, Nicolas Foglia, Miquel Garcia-Rates, Ingolf Harden, Hagen Neugebauer, Anastasios Papadopoulos, 
  Christoph Riplinger, Bernardo de Souza, Georgi L. Stoychev                                                    
                                                                 
  APM, various basis sets, CI-OPT, improved COSX, DLPNO-Multilevel,           
  DOCKER, DRACO, updates on ESD, Fragmentator, GOAT, IRC, LR-CPCM, L-BFGS, MBIS, meta-GGA TD-DFT gradient, ML-optimized integration grids, 
  MM, NACMEs, nearIR, NEB, NEB-TS, NL-DFT gradient (VV10), 2- and 3-layer-ONIOM, interface openCOSMO-RS, QMMM,   
  Crystal-QMMM, RESP, rigid body optimization, SF, symmetry and pop. for TD-DFT, various functionals, SOLVATOR                                   
                                                                         
[Other institutions]                                                     
  V. Asgeirsson          : NEB                                           
  Christoph Bannwarth    : sTDA-DFT, sTD-DFT, PBEh-3c, B97-3c, D3        
  Giovanni Bistoni       : ETS/NOCV, ADLD/ADEX, COVALED                  
  Martin Brehm           : Molecular dynamics                            
  Ronald Cardenas        : ETS/NOCV                                      
  Martina Colucci        : COVALED                                       
  Sebastian Ehlert       : rSCAN, r2SCAN, r2SCAN-3c, D4, dhf basis sets  
  Marvin Friede          : D4 for Fr, Ra, Ac-Lr                          
  Lars Goerigk           : TD-DFT with DH, B97 family of functionals     
  Stefan Grimme          : VdW corrections, initial TS optimization, DFT functionals, gCP, sTDA/sTD-DF 
  Waldemar Hujo          : DFT-NL                                        
  H. Jonsson             : NEB                                           
  Holger Kruse           : gCP                                           
  Marcel Mueller         : wB97X-3c, vDZP basis set                      
  Hagen Neugebauer       : wr2SCAN, Native XTB                           
  Gianluca Regni         : ADLD/ADEX                                     
  Tobias Risthaus        : pre 6.0 range-separated hybrid DFT and stability analysis
  Lukas Wittmann         : regularized MP2, r2SCAN double-hybrids, wr2SCAN        
                                                                         
We gratefully acknowledge several colleagues who have allowed us to      
interface, adapt or use parts of their codes:                            
  Ed Valeev, F. Pavosevic, A. Kumar             : LibInt (2-el integral package), F12 methods 
  Garnet Chan, S. Sharma, J. Yang, R. Olivares  : DMRG                   
  Ulf Ekstrom                                   : XCFun DFT Library      
  Mihaly Kallay                                 : mrcc  (arbitrary order and MRCC methods)
  Frank Weinhold                                : gennbo (NPA and NBO analysis)           
  Simon Mueller                                 : openCOSMO-RS                            
  Christopher J. Cramer and Donald G. Truhlar   : smd solvation model                     
  S Lehtola, MJT Oliveira, MAL Marques          : LibXC Library                           
  Liviu Ungur et al                             : ANISO software                          


 Your calculation uses the libint2 library for the computation of 2-el integrals
 For citations please refer to: http://libint.valeyev.net

 Your ORCA version has been built with support for libXC version: 7.0.0
 For citations please refer to: https://libxc.gitlab.io

 This ORCA versions uses:
   CBLAS   interface :  Fast vector & matrix operations
   LAPACKE interface :  Fast linear algebra routines
   SCALAPACK package :  Parallel linear algebra routines
   Shared memory     :  Shared parallel matrices
   BLAS/LAPACK       :  OpenBLAS 0.3.29  USE64BITINT DYNAMIC_ARCH NO_AFFINITY Zen SINGLE_THREADED
        Core in use  :  Zen
   Copyright (c) 2011-2014, The OpenBLAS Project


  ***********************************
  * Starting time: Thu Apr 23 21:03:10 2026
  * Host name:     vmi3233575
  * Process ID:    1479108
  * Working dir.:  /root/b12_scan/jobs/quasi_planar_nn2.50
  ***********************************

NOTE: MaxCore=2500 MB was set to SCF,MP2,MDCI,CIPSI,MRCI,RASCI and CIS
      => If you want to overwrite this, your respective input block should be placed after the MaxCore statement
Your calculation utilizes the atom-pairwise dispersion correction
with the Becke-Johnson damping scheme (D3BJ)


================================================================================

----- Orbital basis set information -----
Your calculation utilizes the basis: def2-SVP
   F. Weigend and R. Ahlrichs, Phys. Chem. Chem. Phys. 7, 3297 (2005).

----- AuxJ basis set information -----
Your calculation utilizes the auxiliary basis: def2/J
   H-Rn: F. Weigend, Phys. Chem. Chem. Phys. 8, 1057 (2006).
   Fr-Lr: K. Eichkorn, F. Weigend, O. Treutler, R. Ahlrichs; Theor. Chem. Acc. 97, 119 (1997).

================================================================================
                                        WARNINGS
                       Please study these warnings very carefully!
================================================================================


WARNING: Geometry Optimization
  ===> : Switching off AutoStart
         For restart on a previous wavefunction, please use MOREAD

================================================================================
                                       INPUT FILE
================================================================================
NAME = quasi_planar_nn2.50.inp
|  1> ! BP86 def2-SVP def2/J RI Opt TightSCF D3BJ
|  2> ! SlowConv
|  3> 
|  4> %pal nprocs 8 end
|  5> %maxcore 2500
|  6> 
|  7> %geom
|  8>   MaxIter 300
|  9> end
| 10> 
| 11> * xyz 0 1
| 12> B      1.44337567      0.00000000      0.39364791
| 13> B     -0.72168784      1.25000000      0.39364791
| 14> B     -0.72168784     -1.25000000      0.39364791
| 15> B      4.56961529      0.45849085     -0.13121597
| 16> B      3.20581616      3.28851646     -0.13121597
| 17> B      0.34198002      4.57980867     -0.13121597
| 18> B     -2.68187237      3.72815750     -0.13121597
| 19> B     -4.45084688      1.13206001     -0.13121597
| 20> B     -4.13722066     -1.99374095     -0.13121597
| 21> B     -1.88774292     -4.18664836     -0.13121597
| 22> B      1.24503071     -4.42057647     -0.13121597
| 23> B      3.79524064     -2.58606772     -0.13121597
| 24> *
| 25> 
| 26>                          ****END OF INPUT****
================================================================================

                       *****************************
                       * Geometry Optimization Run *
                       *****************************

Geometry optimization settings:
Update method            Update   .... BFGS
Choice of coordinates    CoordSys .... (2022) Redundant Internals
Initial Hessian          InHess   .... Almloef's Model
Max. no of cycles        MaxIter  .... 300

Convergence Tolerances:
Energy Change            TolE     ....  5.0000e-06 Eh
Max. Gradient            TolMAXG  ....  3.0000e-04 Eh/bohr
RMS Gradient             TolRMSG  ....  1.0000e-04 Eh/bohr
Max. Displacement        TolMAXD  ....  4.0000e-03 bohr
RMS Displacement         TolRMSD  ....  2.0000e-03 bohr
Strict Convergence                .... False

------------------------------------------------------------------------------
                        ORCA OPTIMIZATION COORDINATE SETUP
------------------------------------------------------------------------------

The optimization will be done in redundant internal coordinates (2022)
Making redundant internal coordinates   ...  (2022 redundants) done
Evaluating the initial hessian          ...  (Almloef) done
Evaluating the coordinates              ...  done
Calculating the B-matrix                .... done
Calculating the G-matrix                .... done
The number of degrees of freedom        ....  186

    -----------------------------------------------------------------
                    Redundant Internal Coordinates


    -----------------------------------------------------------------
         Definition                    Initial Value    Approx d2E/dq
    -----------------------------------------------------------------
      1. B(B   1,B   0)                  2.5000         0.014205   
      2. B(B   2,B   1)                  2.5000         0.014205   
      3. B(B   2,B   0)                  2.5000         0.014205   
      4. B(B   3,B   0)                  3.2030         0.010000   
      5. B(B   4,B   3)                  3.1415         0.010000   
      6. B(B   4,B   0)                  3.7678         0.010000   
      7. B(B   5,B   1)                  3.5348         0.010000   
      8. B(B   5,B   4)                  3.1415         0.010000   
      9. B(B   6,B   5)                  3.1415         0.010000   
     10. B(B   6,B   1)                  3.2030         0.010000   
     11. B(B   7,B   6)                  3.1415         0.010000   
     12. B(B   7,B   1)                  3.7678         0.010000   
     13. B(B   8,B   2)                  3.5348         0.010000   
     14. B(B   8,B   7)                  3.1415         0.010000   
     15. B(B   9,B   2)                  3.2030         0.010000   
     16. B(B   9,B   8)                  3.1415         0.010000   
     17. B(B  10,B   9)                  3.1415         0.010000   
     18. B(B  10,B   2)                  3.7678         0.010000   
     19. B(B  11,B  10)                  3.1415         0.010000   
     20. B(B  11,B   0)                  3.5348         0.010000   
     21. B(B  11,B   3)                  3.1415         0.010000   
     22. A(B   1,B   0,B   4)           88.2062         0.111710   
     23. A(B   2,B   0,B   4)          147.2990         0.111710   
     24. A(B   1,B   0,B   2)           60.0000         0.154165   
     25. A(B   1,B   0,B   3)          140.6877         0.125321   
     26. A(B   3,B   0,B   4)           52.8196         0.101658   
     27. A(B   2,B   0,B   3)          156.4697         0.125321   
     28. A(B   4,B   0,B  11)          107.8567         0.098606   
     29. A(B   3,B   0,B  11)           55.3182         0.104364   
     30. A(B   2,B   0,B  11)          102.1463         0.116565   
     31. A(B   1,B   0,B  11)          160.3935         0.116565   
     32. A(B   6,B   1,B   7)           52.8196         0.101658   
     33. A(B   2,B   1,B   5)          160.3935         0.116565   
     34. A(B   2,B   1,B   6)          140.6877         0.125321   
     35. A(B   5,B   1,B   6)           55.3182         0.104364   
     36. A(B   0,B   1,B   7)          147.2990         0.111710   
     37. A(B   0,B   1,B   5)          102.1463         0.116565   
     38. A(B   0,B   1,B   2)           60.0000         0.154165   
     39. A(B   0,B   1,B   6)          156.4697         0.125321   
     40. A(B   5,B   1,B   7)          107.8567         0.098606   
     41. A(B   2,B   1,B   7)           88.2062         0.111710   
     42. A(B   0,B   2,B   1)           60.0000         0.154165   
     43. A(B   0,B   2,B   8)          160.3935         0.116565   
     44. A(B   1,B   2,B   8)          102.1463         0.116565   
     45. A(B   9,B   2,B  10)           52.8196         0.101658   
     46. A(B   0,B   2,B   9)          140.6877         0.125321   
     47. A(B   8,B   2,B  10)          107.8567         0.098606   
     48. A(B   1,B   2,B   9)          156.4697         0.125321   
     49. A(B   8,B   2,B   9)           55.3182         0.104364   
     50. A(B   0,B   2,B  10)           88.2062         0.111710   
     51. A(B   1,B   2,B  10)          147.2990         0.111710   
     52. A(B   0,B   3,B  11)           67.7084         0.110307   
     53. A(B   4,B   3,B  11)          140.0000         0.111424   
     54. A(B   0,B   3,B   4)           72.8562         0.110307   
     55. A(B   0,B   4,B   3)           54.3242         0.102322   
     56. A(B   3,B   4,B   5)          140.0000         0.111424   
     57. A(B   0,B   4,B   5)           86.1201         0.102322   
     58. A(B   1,B   5,B   6)           56.9735         0.105170   
     59. A(B   1,B   5,B   4)           83.5180         0.105170   
     60. A(B   4,B   5,B   6)          140.0000         0.111424   
     61. A(B   1,B   6,B   5)           67.7084         0.110307   
     62. A(B   5,B   6,B   7)          140.0000         0.111424   
     63. A(B   1,B   6,B   7)           72.8562         0.110307   
     64. A(B   1,B   7,B   8)           86.1201         0.102322   
     65. A(B   6,B   7,B   8)          140.0000         0.111424   
     66. A(B   1,B   7,B   6)           54.3242         0.102322   
     67. A(B   2,B   8,B   7)           83.5180         0.105170   
     68. A(B   2,B   8,B   9)           56.9735         0.105170   
     69. A(B   7,B   8,B   9)          140.0000         0.111424   
     70. A(B   2,B   9,B   8)           67.7084         0.110307   
     71. A(B   8,B   9,B  10)          140.0000         0.111424   
     72. A(B   2,B   9,B  10)           72.8562         0.110307   
     73. A(B   2,B  10,B   9)           54.3242         0.102322   
     74. A(B   9,B  10,B  11)          140.0000         0.111424   
     75. A(B   2,B  10,B  11)           86.1201         0.102322   
     76. A(B   0,B  11,B  10)           83.5180         0.105170   
     77. A(B   3,B  11,B  10)          140.0000         0.111424   
     78. A(B   0,B  11,B   3)           56.9735         0.105170   
     79. D(B   6,B   1,B   0,B   3)      9.2434         0.010000   
     80. D(B   2,B   1,B   0,B   4)    171.9885         0.010000   
     81. D(B   5,B   1,B   0,B   2)   -171.2637         0.010000   
     82. D(B   2,B   1,B   0,B  11)     26.2639         0.010000   
     83. D(B   6,B   1,B   0,B   2)   -155.7666         0.010000   
     84. D(B   6,B   1,B   0,B   4)     16.2219         0.010000   
     85. D(B   6,B   1,B   0,B  11)   -129.5027         0.010000   
     86. D(B   2,B   1,B   0,B   3)    165.0100         0.010000   
     87. D(B  10,B   2,B   0,B  11)      0.7248         0.010000   
     88. D(B  10,B   2,B   1,B   6)    150.0675         0.010000   
     89. D(B  10,B   2,B   0,B   1)    171.9885         0.010000   
     90. D(B  10,B   2,B   0,B   4)    157.0460         0.010000   
     91. D(B  10,B   2,B   1,B   7)    157.0460         0.010000   
     92. D(B   1,B   2,B   0,B   3)   -155.7666         0.010000   
     93. D(B  10,B   2,B   0,B   3)     16.2219         0.010000   
     94. D(B   0,B   2,B   1,B   7)    171.9885         0.010000   
     95. D(B   0,B   2,B   1,B   5)     26.2639         0.010000   
     96. D(B  10,B   2,B   1,B   5)     11.3215         0.010000   
     97. D(B  10,B   2,B   1,B   0)    -14.9424         0.010000   
     98. D(B   9,B   2,B   1,B   0)   -155.7666         0.010000   
     99. D(B   1,B   2,B   0,B  11)   -171.2637         0.010000   
    100. D(B   1,B   2,B   0,B   4)    -14.9424         0.010000   
    101. D(B   0,B   2,B   1,B   6)    165.0100         0.010000   
    102. D(B   9,B   2,B   0,B   1)    165.0100         0.010000   
    103. D(B  11,B   3,B   0,B   4)   -173.1579         0.010000   
    104. D(B  11,B   3,B   0,B   1)   -164.3908         0.010000   
    105. D(B   4,B   3,B   0,B   2)    154.6372         0.010000   
    106. D(B   4,B   3,B   0,B   1)      8.7671         0.010000   
    107. D(B   4,B   3,B   0,B  11)    173.1579         0.010000   
    108. D(B  11,B   3,B   0,B   2)    -18.5207         0.010000   
    109. D(B   5,B   4,B   0,B   1)     -0.7991         0.010000   
    110. D(B   0,B   4,B   3,B  11)      9.8743         0.010000   
    111. D(B   5,B   4,B   3,B  11)      0.0000         0.010000   
    112. D(B   3,B   4,B   0,B   2)   -161.5463         0.010000   
    113. D(B   5,B   4,B   3,B   0)     -9.8743         0.010000   
    114. D(B   3,B   4,B   0,B   1)   -174.4559         0.010000   
    115. D(B   5,B   4,B   0,B  11)    167.7493         0.010000   
    116. D(B   5,B   4,B   0,B   3)    173.6568         0.010000   
    117. D(B   5,B   4,B   0,B   2)     12.1105         0.010000   
    118. D(B   1,B   5,B   4,B   3)      8.5946         0.010000   
    119. D(B   1,B   5,B   4,B   0)      0.5685         0.010000   
    120. D(B   6,B   5,B   4,B   0)     -8.0261         0.010000   
    121. D(B   4,B   5,B   1,B   6)   -173.4211         0.010000   
    122. D(B   4,B   5,B   1,B   2)    -23.9532         0.010000   
    123. D(B   6,B   5,B   4,B   3)      0.0000         0.010000   
    124. D(B   6,B   5,B   1,B   7)      5.7231         0.010000   
    125. D(B   6,B   5,B   1,B   2)    149.4678         0.010000   
    126. D(B   6,B   5,B   1,B   0)    172.5466         0.010000   
    127. D(B   4,B   5,B   1,B   0)     -0.8744         0.010000   
    128. D(B   7,B   6,B   5,B   4)      0.0000         0.010000   
    129. D(B   7,B   6,B   5,B   1)    -10.2011         0.010000   
    130. D(B   1,B   6,B   5,B   4)     10.2011         0.010000   
    131. D(B   7,B   6,B   1,B   5)    173.1579         0.010000   
    132. D(B   7,B   6,B   1,B   2)      8.7671         0.010000   
    133. D(B   5,B   6,B   1,B   7)   -173.1579         0.010000   
    134. D(B   5,B   6,B   1,B   2)   -164.3908         0.010000   
    135. D(B   5,B   6,B   1,B   0)    -18.5207         0.010000   
    136. D(B   7,B   6,B   1,B   0)    154.6372         0.010000   
    137. D(B   8,B   7,B   1,B   2)     -0.7991         0.010000   
    138. D(B   8,B   7,B   1,B   0)     12.1105         0.010000   
    139. D(B   6,B   7,B   1,B   5)     -5.9076         0.010000   
    140. D(B   6,B   7,B   1,B   2)   -174.4559         0.010000   
    141. D(B   6,B   7,B   1,B   0)   -161.5463         0.010000   
    142. D(B   8,B   7,B   6,B   5)      0.0000         0.010000   
    143. D(B   8,B   7,B   6,B   1)     -9.8743         0.010000   
    144. D(B   1,B   7,B   6,B   5)      9.8743         0.010000   
    145. D(B   8,B   7,B   1,B   6)    173.6568         0.010000   
    146. D(B   2,B   8,B   7,B   1)      0.5685         0.010000   
    147. D(B   2,B   8,B   7,B   6)      8.5946         0.010000   
    148. D(B   9,B   8,B   7,B   1)     -8.0261         0.010000   
    149. D(B   9,B   8,B   7,B   6)      0.0000         0.010000   
    150. D(B   7,B   8,B   2,B  10)   -167.6979         0.010000   
    151. D(B   7,B   8,B   2,B   0)    -23.9532         0.010000   
    152. D(B   7,B   8,B   2,B   1)     -0.8744         0.010000   
    153. D(B   9,B   8,B   2,B  10)      5.7231         0.010000   
    154. D(B   9,B   8,B   2,B   0)    149.4678         0.010000   
    155. D(B   9,B   8,B   2,B   1)    172.5466         0.010000   
    156. D(B   2,B   9,B   8,B   7)     10.2011         0.010000   
    157. D(B  10,B   9,B   8,B   2)    -10.2011         0.010000   
    158. D(B  10,B   9,B   8,B   7)      0.0000         0.010000   
    159. D(B   8,B   9,B   2,B  10)   -173.1579         0.010000   
    160. D(B   8,B   9,B   2,B   0)   -164.3908         0.010000   
    161. D(B   8,B   9,B   2,B   1)    -18.5207         0.010000   
    162. D(B  10,B   9,B   2,B   8)    173.1579         0.010000   
    163. D(B  10,B   9,B   2,B   0)      8.7671         0.010000   
    164. D(B  10,B   9,B   2,B   1)    154.6372         0.010000   
    165. D(B  11,B  10,B   9,B   8)      0.0000         0.010000   
    166. D(B  11,B  10,B   9,B   2)     -9.8743         0.010000   
    167. D(B   9,B  10,B   2,B   0)   -174.4559         0.010000   
    168. D(B   9,B  10,B   2,B   1)   -161.5463         0.010000   
    169. D(B  11,B  10,B   2,B   8)    167.7493         0.010000   
    170. D(B  11,B  10,B   2,B   9)    173.6568         0.010000   
    171. D(B  11,B  10,B   2,B   0)     -0.7991         0.010000   
    172. D(B   2,B  10,B   9,B   8)      9.8743         0.010000   
    173. D(B  11,B  10,B   2,B   1)     12.1105         0.010000   
    174. D(B   0,B  11,B  10,B   9)      8.5946         0.010000   
    175. D(B   3,B  11,B  10,B   9)      0.0000         0.010000   
    176. D(B   3,B  11,B  10,B   2)     -8.0261         0.010000   
    177. D(B  10,B  11,B   3,B   0)     10.2011         0.010000   
    178. D(B  10,B  11,B   3,B   4)      0.0000         0.010000   
    179. D(B   0,B  11,B   3,B   4)    -10.2011         0.010000   
    180. D(B  10,B  11,B   0,B   4)   -167.6979         0.010000   
    181. D(B  10,B  11,B   0,B   2)     -0.8744         0.010000   
    182. D(B  10,B  11,B   0,B   1)    -23.9532         0.010000   
    183. D(B   3,B  11,B   0,B   4)      5.7231         0.010000   
    184. D(B   0,B  11,B  10,B   2)      0.5685         0.010000   
    185. D(B   3,B  11,B   0,B   2)    172.5466         0.010000   
    186. D(B   3,B  11,B   0,B   1)    149.4678         0.010000   
    -----------------------------------------------------------------

Number of atoms                         .... 12
Number of degrees of freedom            .... 186


         *************************************************************
         *                GEOMETRY OPTIMIZATION CYCLE   1            *
         *************************************************************
---------------------------------
CARTESIAN COORDINATES (ANGSTROEM)
---------------------------------
  B      1.443376    0.000000    0.393648
  B     -0.721688    1.250000    0.393648
  B     -0.721688   -1.250000    0.393648
  B      4.569615    0.458491   -0.131216
  B      3.205816    3.288516   -0.131216
  B      0.341980    4.579809   -0.131216
  B     -2.681872    3.728158   -0.131216
  B     -4.450847    1.132060   -0.131216
  B     -4.137221   -1.993741   -0.131216
  B     -1.887743   -4.186648   -0.131216
  B      1.245031   -4.420576   -0.131216
  B      3.795241   -2.586068   -0.131216

----------------------------
CARTESIAN COORDINATES (A.U.)
----------------------------
  NO LB      ZA    FRAG     MASS         X           Y           Z
   0 B     5.0000    0    10.810    2.727585    0.000000    0.743887
   1 B     5.0000    0    10.810   -1.363792    2.362158    0.743887
   2 B     5.0000    0    10.810   -1.363792   -2.362158    0.743887
   3 B     5.0000    0    10.810    8.635321    0.866422   -0.247962
   4 B     5.0000    0    10.810    6.058115    6.214395   -0.247962
   5 B     5.0000    0    10.810    0.646249    8.654584   -0.247962
   6 B     5.0000    0    10.810   -5.068004    7.045197   -0.247962
   7 B     5.0000    0    10.810   -8.410882    2.139283   -0.247962
   8 B     5.0000    0    10.810   -7.818214   -3.767624   -0.247962
   9 B     5.0000    0    10.810   -3.567317   -7.911619   -0.247962
  10 B     5.0000    0    10.810    2.352767   -8.353679   -0.247962
  11 B     5.0000    0    10.810    7.171965   -4.886960   -0.247962

--------------------------------
INTERNAL COORDINATES (ANGSTROEM)
--------------------------------
 B      0   0   0     0.000000000000     0.00000000     0.00000000
 B      1   0   0     2.500000000467     0.00000000     0.00000000
 B      2   1   0     2.500000000000    60.00000001     0.00000000
 B      1   2   3     3.202978319271   140.68769041   165.00998146
 B      4   1   2     3.141495347799    72.85622663     8.76710019
 B      5   4   1     3.141495345910   140.00000002   350.12571592
 B      6   5   4     3.141495343283   139.99999989     0.00000000
 B      7   6   5     3.141495343720   140.00000021     0.00000000
 B      8   7   6     3.141495352123   139.99999977     0.00000000
 B      9   8   7     3.141495346422   140.00000017     0.00000000
 B     10   9   8     3.141495340992   139.99999989     0.00000000
 B      4   1   2     3.141495342146    67.70836125   195.60917303

---------------------------
INTERNAL COORDINATES (A.U.)
---------------------------
 B      0   0   0     0.000000000000     0.00000000     0.00000000
 B      1   0   0     4.724315335685     0.00000000     0.00000000
 B      2   1   0     4.724315334803    60.00000001     0.00000000
 B      1   2   3     6.052751836310   140.68769041   165.00998146
 B      4   1   2     5.936565858328    72.85622663     8.76710019
 B      5   4   1     5.936565854759   140.00000002   350.12571592
 B      6   5   4     5.936565849794   139.99999989     0.00000000
 B      7   6   5     5.936565850619   140.00000021     0.00000000
 B      8   7   6     5.936565866498   139.99999977     0.00000000
 B      9   8   7     5.936565855725   140.00000017     0.00000000
 B     10   9   8     5.936565845464   139.99999989     0.00000000
 B      4   1   2     5.936565847645    67.70836125   195.60917303

---------------------
BASIS SET INFORMATION
---------------------
There are 1 groups of distinct atoms

 Group   1 Type B   : 7s4p1d contracted to 3s2p1d pattern {511/31/1}

Atom   0B    basis set group =>   1
Atom   1B    basis set group =>   1
Atom   2B    basis set group =>   1
Atom   3B    basis set group =>   1
Atom   4B    basis set group =>   1
Atom   5B    basis set group =>   1
Atom   6B    basis set group =>   1
Atom   7B    basis set group =>   1
Atom   8B    basis set group =>   1
Atom   9B    basis set group =>   1
Atom  10B    basis set group =>   1
Atom  11B    basis set group =>   1
---------------------------------
AUXILIARY/J BASIS SET INFORMATION
---------------------------------
There are 1 groups of distinct atoms

 Group   1 Type B   : 12s5p4d2f1g contracted to 6s4p3d1f1g pattern {711111/2111/211/2/1}

Atom   0B    basis set group =>   1
Atom   1B    basis set group =>   1
Atom   2B    basis set group =>   1
Atom   3B    basis set group =>   1
Atom   4B    basis set group =>   1
Atom   5B    basis set group =>   1
Atom   6B    basis set group =>   1
Atom   7B    basis set group =>   1
Atom   8B    basis set group =>   1
Atom   9B    basis set group =>   1
Atom  10B    basis set group =>   1
Atom  11B    basis set group =>   1


           ************************************************************
           *        Program running with 8 parallel MPI-processes     *
           *              working on a common directory               *
           ************************************************************
------------------------------------------------------------------------------
                             ORCA STARTUP CALCULATIONS
                           -- RI-GTO INTEGRALS CHOSEN --
------------------------------------------------------------------------------
------------------------------------------------------------------------------
                   ___                                                        
                  /   \      - P O W E R E D   B Y -                         
                 /     \                                                     
                 |  |  |   _    _      __       _____    __    __             
                 |  |  |  | |  | |    /  \     |  _  \  |  |  /  |          
                  \  \/   | |  | |   /    \    | | | |  |  | /  /          
                 / \  \   | |__| |  /  /\  \   | |_| |  |  |/  /          
                |  |  |   |  __  | /  /__\  \  |    /   |      \           
                |  |  |   | |  | | |   __   |  |    \   |  |\   \          
                \     /   | |  | | |  |  |  |  | |\  \  |  | \   \       
                 \___/    |_|  |_| |__|  |__|  |_| \__\ |__|  \__/        
                                                                              
                      - O R C A' S   B I G   F R I E N D -                    
                                      &                                       
                       - I N T E G R A L  F E E D E R -                       
                                                                              
 v1 FN, 2020, v2 2021, v3 2022-2024                                           
------------------------------------------------------------------------------


----------------------
SHARK INTEGRAL PACKAGE
----------------------

Number of atoms                             ...     12
Number of basis functions                   ...    168
Number of shells                            ...     72
Maximum angular momentum                    ...      2
Integral batch strategy                     ... SHARK/LIBINT Hybrid
RI-J (if used) integral strategy            ... SPLIT-RIJ (Revised 2003 algorithm where possible)
Printlevel                                  ...      1
Contraction scheme used                     ... SEGMENTED contraction
Prescreening option                         ... SCHWARTZ
   Thresh                                   ... 2.500e-11
   Tcut                                     ... 2.500e-12
   Tpresel                                  ... 2.500e-12 
Coulomb Range Separation                    ... NOT USED
Exchange Range Separation                   ... NOT USED
Multipole approximations                    ... NOT USED
Finite Nucleus Model                        ... NOT USED
CABS basis                                  ... NOT available
Auxiliary Coulomb fitting basis             ... AVAILABLE
   # of basis functions in Aux-J            ...    588
   # of shells in Aux-J                     ...    180
   Maximum angular momentum in Aux-J        ...      4
Auxiliary J/K fitting basis                 ... NOT available
Auxiliary Correlation fitting basis         ... NOT available
Auxiliary 'external' fitting basis          ... NOT available

Checking pre-screening integrals            ... done (  0.0 sec) Dimension = 72
   => SHARK Basis and OBASIS are compatible. Storing Pre-screening
Shell pair information
Shell pair cut-off parameter TPreSel        ...   2.5e-12
Total number of shell pairs                 ...      2628
Shell pairs after pre-screening             ...      2154
Total number of primitive shell pairs       ...     10596
Primitive shell pairs kept                  ...      5481
          la=0 lb=0:    510 shell pairs
          la=1 lb=0:    740 shell pairs
          la=1 lb=1:    282 shell pairs
          la=2 lb=0:    310 shell pairs
          la=2 lb=1:    252 shell pairs
          la=2 lb=2:     60 shell pairs

Checking whether 4 symmetric matrices of dimension 168 fit in memory
:Max Core in MB      =   2500.00
 MB in use           =      6.12
 MB left             =   2493.88
 MB needed           =      0.43
 Data fit in memory  = YES
Calculating RI/J V-Matrix + Cholesky decomp.... done (  0.1 sec)
Calculating Nuclear repulsion               ... done (  0.0 sec) ENN=    181.254192684762 Eh

Diagonalization of the overlap matrix:
Smallest eigenvalue                        ... 1.648e-02
Time for diagonalization                   ...    0.004 sec
Threshold for overlap eigenvalues          ... 1.000e-07
Number of eigenvalues below threshold      ... 0
Time for construction of square roots      ...    0.012 sec
Total time needed                          ...    0.018 sec

-------------------
DFT GRID GENERATION
-------------------

General Integration Accuracy     IntAcc      ... 4.388
Radial Grid Type                 RadialGrid  ... OptM3 with GC (2021)
Angular Grid (max. ang.)         AngularGrid ... 4 (Lebedev-302)
Angular grid pruning method      GridPruning ... 4 (adaptive)
Weight generation scheme         WeightScheme... mBecke (2022)
Basis function cutoff            BFCut       ... 1.0000e-11
Integration weight cutoff        WCut        ... 1.0000e-14
Partially contracted basis set               ... off
Rotationally invariant grid construction     ... off
Angular grids for H and He will be reduced by one unit

Total number of grid points                  ...    73233
Total number of batches                      ...     1151
Average number of points per batch           ...       63
Average number of grid points per atom       ...     6103
Grids setup in   1.7 sec
Initializing property integral containers    ... done (  0.0 sec)

SHARK setup successfully completed in   2.1 seconds

Maximum memory used throughout the entire STARTUP-calculation: 19.3 MB


           ************************************************************
           *        Program running with 8 parallel MPI-processes     *
           *              working on a common directory               *
           ************************************************************
-------------------------------------------------------------------------------
                                 ORCA GUESS
                   Start orbitals & Density for SCF / CASSCF
-------------------------------------------------------------------------------

------------
SCF SETTINGS
------------
Hamiltonian:
 Density Functional     Method          .... DFT(GTOs)
 Exchange Functional    Exchange        .... B88
   X-Alpha parameter    XAlpha          ....  0.666667
   Becke's b parameter  XBeta           ....  0.004200
 Correlation Functional Correlation     .... P86
 LDA part of GGA corr.  LDAOpt          .... PW91-LDA
 Gradients option       PostSCFGGA      .... off
   NL short-range parameter             ....  4.400000
 RI-approximation to the Coulomb term is turned on
   Number of AuxJ basis functions       .... 588


General Settings:
 Integral files         IntName         .... quasi_planar_nn2.50
 Hartree-Fock type      HFTyp           .... RHF
 Total Charge           Charge          ....    0
 Multiplicity           Mult            ....    1
 Number of Electrons    NEL             ....   60
 Basis Dimension        Dim             ....  168
 Nuclear Repulsion      ENuc            ....    181.2541926848 Eh

Convergence Acceleration:
 AO-DIIS                CNVDIIS         .... on
   Start iteration      DIISMaxIt       ....     0
   Startup error        DIISStart       ....  0.200000
   # of expansion vecs  DIISMaxEq       ....     5
   Bias factor          DIISBfac        ....   1.050
   Max. coefficient     DIISMaxC        ....  10.000
 MO-DIIS                CNVKDIIS        .... off
 Trust-Rad. Augm. Hess. CNVTRAH         .... auto
   Auto Start mean grad. ratio tolernc. ....  1.125000
   Auto Start start iteration           ....    50
   Auto Start num. interpolation iter.  ....    10
   Max. Number of Micro iterations      ....    24
   Max. Number of Macro iterations      .... Maxiter - #DIIS iter
   Number of Davidson start vectors     ....     2
   Converg. threshold    (grad. norm)   ....   1.000e-05
   Grad. Scal. Fac. for Micro threshold ....   0.100
   Minimum threshold for Micro iter.    ....   1.000e-02
   NR start threshold (gradient norm)   ....   1.000e-04
   Initial trust radius                 ....   0.400
   Minimum AH scaling param. (alpha)    ....   1.000
   Maximum AH scaling param. (alpha)    .... 1000.000
   Quad. conv. algorithm                .... NR
   White noise on init. David. guess    .... on
   Maximum white noise                  ....   0.010
   Pseudo random numbers                .... off
   Inactive MOs                         .... canonical
   Orbital update algorithm             .... Taylor
   Preconditioner                       .... Diag
   Full preconditioner red. dimension   ....   250
 SOSCF                 CNVSOSCF           .... on
   Start iteration     SOSCFMaxIt         ....   150
   Startup grad/error  SOSCFStart         ....  0.001000
   Hessian update      SOSCFHessUp        .... L-BFGS
   Autom. constraints  SOSCFAutoConstrain .... off
 Level Shifting         CNVShift        .... on
   Level shift para.    LevelShift      ....    0.2500
   Turn off err/grad.   ShiftErr        ....    0.0000
 Zerner damping         CNVZerner       .... off
 Static damping         CNVDamp         .... on
   Fraction old density DampFac         ....    0.8500
   Max. Damping (<1)    DampMax         ....    0.9800
   Min. Damping (>=0)   DampMin         ....    0.0000
   Turn off err/grad.   DampErr         ....    0.0300

SCF Procedure:
 Maximum # iterations   MaxIter         ....   125
 SCF integral mode      SCFMode         .... Direct
   Integral package                     .... SHARK and LIBINT hybrid scheme
 Reset frequency        DirectResetFreq ....    20
 Integral Threshold     Thresh          ....  2.500e-11 Eh
 Primitive CutOff       TCut            ....  2.500e-12 Eh

Convergence Tolerance:
 Convergence Check Mode ConvCheckMode   .... Total+1el-Energy
 Convergence forced     ConvForced      .... 0
 Energy Change          TolE            ....  1.000e-08 Eh
 1-El. energy change                    ....  1.000e-05 Eh
 Orbital Gradient       TolG            ....  1.000e-05
 Orbital Rotation angle TolX            ....  1.000e-05
 DIIS Error             TolErr          ....  5.000e-07

------------------------------
INITIAL GUESS: MODEL POTENTIAL
------------------------------
Loading Hartree-Fock densities                     ... done
Calculating cut-offs                               ... done
Initializing the effective Hamiltonian             ... done
Setting up the integral package (SHARK)            ... done
Starting the Coulomb interaction                   ... done (   0.1 sec)
Making the grid                                    ... done (   0.2 sec)
Mapping shells                                     ... done
Starting the XC term evaluation                    ... done (   0.0 sec)
  promolecular density results
     # of electrons  =     60.000025841
     EX              =    -44.255929013
     EC              =     -1.648424858
     EX+EC           =    -45.904353870
Transforming the Hamiltonian                       ... done (   0.0 sec)
Diagonalizing the Hamiltonian                      ... done (   0.0 sec)
Back transforming the eigenvectors                 ... done (   0.0 sec)
Now organizing SCF variables                       ... done
                      ------------------
                      INITIAL GUESS DONE (   0.3 sec)
                      ------------------
             **** ENERGY FILE WAS UPDATED (quasi_planar_nn2.50.en.tmp) ****
Finished Guess after   1.1 sec
Maximum memory used throughout the entire GUESS-calculation: 8.8 MB


           ************************************************************
           *        Program running with 8 parallel MPI-processes     *
           *              working on a common directory               *
           ************************************************************

-------------------------------------------------------------------------------------------
                                      ORCA LEAN-SCF
                              memory conserving SCF solver
-------------------------------------------------------------------------------------------

----------------------------------------D-I-I-S--------------------------------------------
Iteration    Energy (Eh)           Delta-E    RMSDP     MaxDP     DIISErr   Damp  Time(sec)
-------------------------------------------------------------------------------------------
               ***  Starting incremental Fock matrix formation  ***
    1    -295.1833687203756540     0.00e+00  1.11e-02  1.17e-01  1.65e-01  0.850   0.8
Warning: op=0 Small HOMO/LUMO gap (  -0.026) - skipping pre-diagonalization
         Will do a full diagonalization
    2    -295.5828999926043821    -4.00e-01  9.83e-03  9.78e-02  7.43e-02  0.850   0.3
                               ***Turning on AO-DIIS***
    3    -295.6039256657243186    -2.10e-02  6.68e-03  4.14e-02  2.24e-02  0.850   0.2
    4    -295.4936120213898221     1.10e-01  3.30e-02  1.56e-01  7.82e-02  0.000   0.2
    5    -293.9385358426777657     1.56e+00  1.31e-03  1.43e-02  4.11e-01  0.850   0.2
    6    -294.0390969710269928    -1.01e-01  1.97e-03  2.03e-02  3.93e-01  0.850   0.2
    7    -294.1814677697042839    -1.42e-01  2.24e-03  2.15e-02  3.65e-01  0.850   0.2
    8    -294.3336405051584279    -1.52e-01  3.06e-03  3.21e-02  3.35e-01  0.850   0.3
    9    -294.5389350535357949    -2.05e-01  1.38e-02  1.86e-01  2.96e-01  0.850   0.7
   10    -295.3139431299464945    -7.75e-01  9.97e-03  1.13e-01  1.43e-01  0.850   1.8
   11    -295.5459143395275987    -2.32e-01  7.59e-03  6.43e-02  4.10e-02  0.850   0.2
   12    -295.5210766187434501     2.48e-02  6.02e-03  4.32e-02  3.54e-02  0.850   0.5
   13    -295.4315920296054969     8.95e-02  5.13e-03  2.75e-02  5.61e-02  0.850   0.3
   14    -295.3741253876933115     5.75e-02  4.86e-03  3.02e-02  7.91e-02  0.850   0.5
   15    -295.3649291746341419     9.20e-03  4.76e-03  3.65e-02  8.61e-02  0.850   0.6
   16    -295.3776050183121242    -1.27e-02  4.56e-03  3.71e-02  7.67e-02  0.850   0.7
   17    -295.3881401795053989    -1.05e-02  4.73e-03  3.81e-02  5.77e-02  0.850   0.5
   18    -295.3922389127864108    -4.10e-03  5.01e-03  3.68e-02  5.01e-02  0.850   0.5
   19    -295.4469481968517925    -5.47e-02  5.06e-03  3.25e-02  5.57e-02  0.850   0.5
   20    -295.5112289609959362    -6.43e-02  4.58e-03  2.77e-02  6.26e-02  0.850   0.3
               *** Restarting incremental Fock matrix formation ***
                             ****Resetting DIIS****
Warning: op=0 Small HOMO/LUMO gap (  -0.061) - skipping pre-diagonalization
         Will do a full diagonalization
   21    -295.5584115862064891    -4.72e-02  6.49e-03  4.71e-02  6.34e-02  0.850   0.4
   22    -295.6319698415081803    -7.36e-02  4.58e-03  2.70e-02  3.47e-02  0.850   0.4
   23    -295.6729927535300249    -4.10e-02  3.51e-03  2.00e-02  1.50e-02  0.850   1.3
   24    -295.6984625728661626    -2.55e-02  1.91e-02  1.06e-01  6.30e-03  0.000   1.1
   25    -295.7702249511580135    -7.18e-02  3.56e-03  1.60e-02  4.94e-02  0.000   0.4
   26    -295.8096347998907163    -3.94e-02  4.19e-04  1.99e-03  3.84e-02  0.850   0.5
   27    -295.8131588717851628    -3.52e-03  6.73e-04  3.03e-03  3.73e-02  0.850   0.7
   28    -295.8183030264693230    -5.14e-03  8.28e-04  3.49e-03  3.56e-02  0.850   0.6
   29    -295.8242055944209596    -5.90e-03  1.22e-03  6.59e-03  3.34e-02  0.850   0.7
   30    -295.8336704458457120    -9.46e-03  1.29e-03  7.47e-03  2.79e-02  0.850   0.5
   31    -295.8420072061367136    -8.34e-03  7.87e-03  4.41e-02  2.20e-02  0.000   0.5
   32    -295.8582347179214480    -1.62e-02  1.55e-03  1.50e-02  1.31e-02  0.000   0.5
   33    -295.8604598294748484    -2.23e-03  8.23e-04  5.56e-03  1.16e-02  0.000   0.2
   34    -295.8617609667195438    -1.30e-03  6.82e-04  4.20e-03  7.66e-03  0.000   0.2
   35    -295.8626461235337501    -8.85e-04  6.93e-04  5.01e-03  5.14e-03  0.000   0.4
   36    -295.8630059619030703    -3.60e-04  5.79e-04  3.94e-03  4.03e-03  0.000   0.5
   37    -295.8634232595952085    -4.17e-04  4.71e-04  3.33e-03  1.23e-03  0.000   0.6
   38    -295.8635217546120657    -9.85e-05  3.36e-04  2.24e-03  1.02e-03  0.000   0.2
                              *** Initializing SOSCF ***
---------------------------------------S-O-S-C-F--------------------------------------
Iteration    Energy (Eh)           Delta-E    RMSDP     MaxDP     MaxGrad    Time(sec)
--------------------------------------------------------------------------------------
   39    -295.8636109721155663    -8.92e-05  2.78e-04  1.25e-03  7.15e-04     0.5
               *** Restarting incremental Fock matrix formation ***
   40    -295.8636774046952382    -6.64e-05  4.05e-04  1.38e-03  6.72e-04     0.4
   41    -295.8637232321636361    -4.58e-05  1.41e-03  5.18e-03  1.19e-03     0.4
   42    -295.8638820392354205    -1.59e-04  1.76e-03  6.77e-03  8.56e-04     0.4
   43    -295.8636592910796708     2.23e-04  8.90e-04  3.84e-03  2.41e-03     0.3
   44    -295.8638808574256700    -2.22e-04  1.43e-03  9.26e-03  1.44e-03     0.3
   45    -295.8636063228472608     2.75e-04  1.20e-03  6.52e-03  2.29e-03     0.4
   46    -295.8639576435038521    -3.51e-04  1.37e-04  5.32e-04  1.97e-04     0.2
   47    -295.8639633369758144    -5.69e-06  6.29e-04  2.07e-03  1.52e-04     0.2
   48    -295.8639731673825395    -9.83e-06  3.87e-04  1.77e-03  4.54e-04     0.3
   49    -295.8639446500521899     2.85e-05  4.05e-04  1.54e-03  9.27e-04     0.6
   50    -295.8639772435630562    -3.26e-05  9.40e-05  8.77e-04  1.08e-04     0.5
   51    -295.8639747489603451     2.49e-06  7.18e-05  5.15e-04  2.51e-04     0.4
   52    -295.8639780872606480    -3.34e-06  3.82e-05  3.61e-04  6.49e-05     1.4
   53    -295.8639781439402441    -5.67e-08  2.79e-05  1.64e-04  8.98e-05     1.3
   54    -295.8639785605467978    -4.17e-07  8.32e-05  2.92e-04  5.32e-05     0.3
   55    -295.8639791064431961    -5.46e-07  1.31e-04  4.79e-04  4.68e-05     0.3
   56    -295.8639794459583641    -3.40e-07  8.24e-05  3.19e-04  8.54e-05     0.6
   57    -295.8639796685432088    -2.23e-07  1.96e-05  9.05e-05  4.93e-05     0.2
   58    -295.8639797518962382    -8.34e-08  1.36e-05  8.50e-05  1.04e-05     0.2
   59    -295.8639797561680211    -4.27e-09  1.27e-05  5.20e-05  2.35e-05     0.3
                 **** Energy Check signals convergence ****
               *** Restarting incremental Fock matrix formation ***

               *****************************************************
               *                     SUCCESS                       *
               *           SCF CONVERGED AFTER  59 CYCLES          *
               *****************************************************

             **** ENERGY FILE WAS UPDATED (quasi_planar_nn2.50.en.tmp) ****

----------------
TOTAL SCF ENERGY
----------------

Total Energy       :       -295.86397978232662 Eh           -8050.86819 eV

Components:
Nuclear Repulsion  :        181.25419268476168 Eh            4932.17733 eV
Electronic Energy  :       -477.11817246708830 Eh          -12983.04552 eV
One Electron Energy:       -750.74284029552996 Eh          -20428.75126 eV
Two Electron Energy:        273.62466782844166 Eh            7445.70574 eV

Virial components:
Potential Energy   :       -587.95517524754450 Eh          -15999.07370 eV
Kinetic Energy     :        292.09119546521788 Eh            7948.20551 eV
Virial Ratio       :          2.01291646025516

DFT components:
N(Alpha)           :       30.000006814511 electrons
N(Beta)            :       30.000006814511 electrons
N(Total)           :       60.000013629021 electrons
E(X)               :      -44.401804362561 Eh       
E(C)               :       -1.684488778914 Eh       
E(XC)              :      -46.086293141476 Eh       

---------------
SCF CONVERGENCE
---------------

  Last Energy change         ...    4.2718e-09  Tolerance :   1.0000e-08
  Last MAX-Density change    ...    5.1980e-05  Tolerance :   1.0000e-07
  Last RMS-Density change    ...    1.2708e-05  Tolerance :   5.0000e-09
  Last DIIS Error            ...    7.1486e-04  Tolerance :   5.0000e-07
  Last Orbital Gradient      ...    2.3507e-05  Tolerance :   1.0000e-05
  Last Orbital Rotation      ...    3.4421e-04  Tolerance :   1.0000e-05


----------------
ORBITAL ENERGIES
----------------

  NO   OCC          E(Eh)            E(eV) 
   0   2.0000      -6.668693      -181.4644 
   1   2.0000      -6.668625      -181.4625 
   2   2.0000      -6.668599      -181.4618 
   3   2.0000      -6.667169      -181.4229 
   4   2.0000      -6.667164      -181.4227 
   5   2.0000      -6.667099      -181.4210 
   6   2.0000      -6.663527      -181.3238 
   7   2.0000      -6.663515      -181.3234 
   8   2.0000      -6.663490      -181.3228 
   9   2.0000      -6.627049      -180.3312 
  10   2.0000      -6.627036      -180.3308 
  11   2.0000      -6.626902      -180.3272 
  12   2.0000      -0.402932       -10.9643 
  13   2.0000      -0.374241       -10.1836 
  14   2.0000      -0.374228       -10.1833 
  15   2.0000      -0.373466       -10.1625 
  16   2.0000      -0.358919        -9.7667 
  17   2.0000      -0.358902        -9.7662 
  18   2.0000      -0.339337        -9.2338 
  19   2.0000      -0.336830        -9.1656 
  20   2.0000      -0.320672        -8.7259 
  21   2.0000      -0.320669        -8.7258 
  22   2.0000      -0.287649        -7.8273 
  23   2.0000      -0.287643        -7.8272 
  24   2.0000      -0.189059        -5.1446 
  25   2.0000      -0.187184        -5.0935 
  26   2.0000      -0.187181        -5.0935 
  27   2.0000      -0.166439        -4.5290 
  28   2.0000      -0.166375        -4.5273 
  29   2.0000      -0.166367        -4.5271 
  30   0.0000      -0.162003        -4.4083 
  31   0.0000      -0.161202        -4.3865 
  32   0.0000      -0.155831        -4.2404 
  33   0.0000      -0.155818        -4.2400 
  34   0.0000      -0.150426        -4.0933 
  35   0.0000      -0.150415        -4.0930 
  36   0.0000      -0.146121        -3.9761 
  37   0.0000      -0.143762        -3.9120 
  38   0.0000      -0.143744        -3.9115 
  39   0.0000      -0.130735        -3.5575 
  40   0.0000      -0.129906        -3.5349 
*Only the first 10 virtual orbitals were printed.

                    ********************************
                    * MULLIKEN POPULATION ANALYSIS *
                    ********************************

-----------------------
MULLIKEN ATOMIC CHARGES
-----------------------
   0 B :   -0.122316
   1 B :   -0.122342
   2 B :   -0.122349
   3 B :    0.033333
   4 B :    0.046677
   5 B :    0.042327
   6 B :    0.033256
   7 B :    0.046861
   8 B :    0.042186
   9 B :    0.033323
  10 B :    0.046736
  11 B :    0.042308
Sum of atomic charges:   -0.0000000

--------------------------------
MULLIKEN REDUCED ORBITAL CHARGES
--------------------------------
  0 B s       :     3.776972  s :     3.776972
      pz      :     0.267335  p :     1.339344
      px      :     0.554012
      py      :     0.517997
      dz2     :     0.000895  d :     0.006000
      dxz     :     0.000372
      dyz     :     0.000007
      dx2y2   :     0.002005
      dxy     :     0.002721

  1 B s       :     3.776973  s :     3.776973
      pz      :     0.267344  p :     1.339369
      px      :     0.527369
      py      :     0.544656
      dz2     :     0.000895  d :     0.006000
      dxz     :     0.000099
      dyz     :     0.000281
      dx2y2   :     0.002536
      dxy     :     0.002190

  2 B s       :     3.776971  s :     3.776971
      pz      :     0.267345  p :     1.339378
      px      :     0.526646
      py      :     0.545387
      dz2     :     0.000895  d :     0.006000
      dxz     :     0.000098
      dyz     :     0.000281
      dx2y2   :     0.002548
      dxy     :     0.002178

  3 B s       :     3.948835  s :     3.948835
      pz      :     0.138461  p :     1.016399
      px      :     0.405705
      py      :     0.472233
      dz2     :     0.000291  d :     0.001433
      dxz     :     0.000079
      dyz     :     0.000006
      dx2y2   :     0.000584
      dxy     :     0.000473

  4 B s       :     3.952063  s :     3.952063
      pz      :     0.130106  p :     1.000286
      px      :     0.446746
      py      :     0.423434
      dz2     :     0.000200  d :     0.000974
      dxz     :     0.000010
      dyz     :     0.000016
      dx2y2   :     0.000384
      dxy     :     0.000365

  5 B s       :     3.950338  s :     3.950338
      pz      :     0.131609  p :     1.006277
      px      :     0.510979
      py      :     0.363689
      dz2     :     0.000215  d :     0.001058
      dxz     :     0.000005
      dyz     :     0.000031
      dx2y2   :     0.000383
      dxy     :     0.000423

  6 B s       :     3.948839  s :     3.948839
      pz      :     0.138480  p :     1.016472
      px      :     0.454566
      py      :     0.423427
      dz2     :     0.000291  d :     0.001433
      dxz     :     0.000033
      dyz     :     0.000051
      dx2y2   :     0.000454
      dxy     :     0.000603

  7 B s       :     3.952055  s :     3.952055
      pz      :     0.130090  p :     1.000110
      px      :     0.352922
      py      :     0.517099
      dz2     :     0.000200  d :     0.000974
      dxz     :     0.000022
      dyz     :     0.000004
      dx2y2   :     0.000397
      dxy     :     0.000352

  8 B s       :     3.950343  s :     3.950343
      pz      :     0.131628  p :     1.006413
      px      :     0.386989
      py      :     0.487796
      dz2     :     0.000215  d :     0.001058
      dxz     :     0.000031
      dyz     :     0.000006
      dx2y2   :     0.000455
      dxy     :     0.000351

  9 B s       :     3.948835  s :     3.948835
      pz      :     0.138464  p :     1.016410
      px      :     0.456664
      py      :     0.421281
      dz2     :     0.000291  d :     0.001433
      dxz     :     0.000015
      dyz     :     0.000070
      dx2y2   :     0.000548
      dxy     :     0.000510

 10 B s       :     3.952062  s :     3.952062
      pz      :     0.130109  p :     1.000228
      px      :     0.505517
      py      :     0.364602
      dz2     :     0.000200  d :     0.000974
      dxz     :     0.000006
      dyz     :     0.000019
      dx2y2   :     0.000342
      dxy     :     0.000406

 11 B s       :     3.950341  s :     3.950341
      pz      :     0.131611  p :     1.006293
      px      :     0.414092
      py      :     0.460590
      dz2     :     0.000215  d :     0.001058
      dxz     :     0.000019
      dyz     :     0.000018
      dx2y2   :     0.000371
      dxy     :     0.000435



                     *******************************
                     * LOEWDIN POPULATION ANALYSIS *
                     *******************************

----------------------
LOEWDIN ATOMIC CHARGES
----------------------
   0 B :   -0.114797
   1 B :   -0.114829
   2 B :   -0.114832
   3 B :    0.020287
   4 B :    0.051910
   5 B :    0.042625
   6 B :    0.020213
   7 B :    0.052090
   8 B :    0.042486
   9 B :    0.020276
  10 B :    0.051965
  11 B :    0.042606

-------------------------------
LOEWDIN REDUCED ORBITAL CHARGES
-------------------------------
  0 B s       :     3.593921  s :     3.593921
      pz      :     0.269354  p :     1.509939
      px      :     0.658277
      py      :     0.582309
      dz2     :     0.001809  d :     0.010937
      dxz     :     0.000448
      dyz     :     0.000010
      dx2y2   :     0.002967
      dxy     :     0.005702

  1 B s       :     3.593925  s :     3.593925
      pz      :     0.269363  p :     1.509968
      px      :     0.602125
      py      :     0.638479
      dz2     :     0.001809  d :     0.010937
      dxz     :     0.000120
      dyz     :     0.000338
      dx2y2   :     0.004990
      dxy     :     0.003679

  2 B s       :     3.593925  s :     3.593925
      pz      :     0.269364  p :     1.509971
      px      :     0.600495
      py      :     0.640112
      dz2     :     0.001809  d :     0.010937
      dxz     :     0.000119
      dyz     :     0.000339
      dx2y2   :     0.005046
      dxy     :     0.003623

  3 B s       :     3.894741  s :     3.894741
      pz      :     0.138913  p :     1.083052
      px      :     0.432200
      py      :     0.511939
      dz2     :     0.000405  d :     0.001920
      dxz     :     0.000097
      dyz     :     0.000007
      dx2y2   :     0.000806
      dxy     :     0.000606

  4 B s       :     3.906955  s :     3.906955
      pz      :     0.129578  p :     1.039817
      px      :     0.467872
      py      :     0.442367
      dz2     :     0.000283  d :     0.001318
      dxz     :     0.000012
      dyz     :     0.000018
      dx2y2   :     0.000487
      dxy     :     0.000519

  5 B s       :     3.903336  s :     3.903336
      pz      :     0.131328  p :     1.052612
      px      :     0.547147
      py      :     0.374137
      dz2     :     0.000301  d :     0.001426
      dxz     :     0.000006
      dyz     :     0.000038
      dx2y2   :     0.000548
      dxy     :     0.000534

  6 B s       :     3.894745  s :     3.894745
      pz      :     0.138932  p :     1.083122
      px      :     0.489797
      py      :     0.454393
      dz2     :     0.000405  d :     0.001920
      dxz     :     0.000041
      dyz     :     0.000064
      dx2y2   :     0.000590
      dxy     :     0.000822

  7 B s       :     3.906943  s :     3.906943
      pz      :     0.129562  p :     1.039648
      px      :     0.359102
      py      :     0.550984
      dz2     :     0.000283  d :     0.001318
      dxz     :     0.000025
      dyz     :     0.000004
      dx2y2   :     0.000543
      dxy     :     0.000463

  8 B s       :     3.903345  s :     3.903345
      pz      :     0.131347  p :     1.052743
      px      :     0.401442
      py      :     0.519953
      dz2     :     0.000301  d :     0.001426
      dxz     :     0.000037
      dyz     :     0.000007
      dx2y2   :     0.000592
      dxy     :     0.000490

  9 B s       :     3.894741  s :     3.894741
      pz      :     0.138916  p :     1.083063
      px      :     0.494238
      py      :     0.449909
      dz2     :     0.000405  d :     0.001920
      dxz     :     0.000018
      dyz     :     0.000086
      dx2y2   :     0.000722
      dxy     :     0.000690

 10 B s       :     3.906953  s :     3.906953
      pz      :     0.129581  p :     1.039763
      px      :     0.538304
      py      :     0.371879
      dz2     :     0.000283  d :     0.001318
      dxz     :     0.000008
      dyz     :     0.000022
      dx2y2   :     0.000479
      dxy     :     0.000527

 11 B s       :     3.903340  s :     3.903340
      pz      :     0.131330  p :     1.052628
      px      :     0.433393
      py      :     0.487905
      dz2     :     0.000301  d :     0.001426
      dxz     :     0.000023
      dyz     :     0.000021
      dx2y2   :     0.000482
      dxy     :     0.000599



                      *****************************
                      * MAYER POPULATION ANALYSIS *
                      *****************************

  NA   - Mulliken gross atomic population
  ZA   - Total nuclear charge
  QA   - Mulliken gross atomic charge
  VA   - Mayer's total valence
  BVA  - Mayer's bonded valence
  FA   - Mayer's free valence

  ATOM       NA         ZA         QA         VA         BVA        FA
  0 B      5.1223     5.0000    -0.1223     2.3675     2.3675     0.0000
  1 B      5.1223     5.0000    -0.1223     2.3676     2.3676    -0.0000
  2 B      5.1223     5.0000    -0.1223     2.3676     2.3676    -0.0000
  3 B      4.9667     5.0000     0.0333     1.6969     1.6969     0.0000
  4 B      4.9533     5.0000     0.0467     1.6712     1.6712    -0.0000
  5 B      4.9577     5.0000     0.0423     1.6827     1.6827    -0.0000
  6 B      4.9667     5.0000     0.0333     1.6970     1.6970     0.0000
  7 B      4.9531     5.0000     0.0469     1.6710     1.6710    -0.0000
  8 B      4.9578     5.0000     0.0422     1.6829     1.6829    -0.0000
  9 B      4.9667     5.0000     0.0333     1.6970     1.6970    -0.0000
 10 B      4.9533     5.0000     0.0467     1.6711     1.6711    -0.0000
 11 B      4.9577     5.0000     0.0423     1.6828     1.6828    -0.0000

  Mayer bond orders larger than 0.100000
B(  0-B ,  1-B ) :   0.4787 B(  0-B ,  2-B ) :   0.4787 B(  0-B ,  3-B ) :   0.3385 
B(  0-B ,  4-B ) :   0.1999 B(  0-B ,  6-B ) :   0.1155 B(  0-B ,  7-B ) :   0.1310 
B(  0-B ,  8-B ) :   0.1490 B(  0-B , 11-B ) :   0.2468 B(  1-B ,  2-B ) :   0.4787 
B(  1-B ,  5-B ) :   0.2468 B(  1-B ,  6-B ) :   0.3386 B(  1-B ,  7-B ) :   0.1999 
B(  1-B ,  9-B ) :   0.1154 B(  1-B , 10-B ) :   0.1310 B(  1-B , 11-B ) :   0.1490 
B(  2-B ,  3-B ) :   0.1154 B(  2-B ,  4-B ) :   0.1310 B(  2-B ,  5-B ) :   0.1490 
B(  2-B ,  8-B ) :   0.2468 B(  2-B ,  9-B ) :   0.3386 B(  2-B , 10-B ) :   0.1999 
B(  3-B ,  4-B ) :   0.2894 B(  3-B ,  5-B ) :   0.1072 B(  3-B ,  7-B ) :   0.1109 
B(  3-B ,  8-B ) :   0.1278 B(  3-B , 10-B ) :   0.1199 B(  3-B , 11-B ) :   0.2841 
B(  4-B ,  5-B ) :   0.3214 B(  4-B ,  6-B ) :   0.1199 B(  4-B ,  9-B ) :   0.1109 
B(  4-B , 11-B ) :   0.1434 B(  5-B ,  6-B ) :   0.2841 B(  5-B ,  7-B ) :   0.1434 
B(  5-B ,  9-B ) :   0.1277 B(  6-B ,  7-B ) :   0.2893 B(  6-B ,  8-B ) :   0.1072 
B(  6-B , 10-B ) :   0.1109 B(  6-B , 11-B ) :   0.1278 B(  7-B ,  8-B ) :   0.3214 
B(  7-B ,  9-B ) :   0.1199 B(  8-B ,  9-B ) :   0.2841 B(  8-B , 10-B ) :   0.1434 
B(  9-B , 10-B ) :   0.2894 B(  9-B , 11-B ) :   0.1072 B( 10-B , 11-B ) :   0.3214 


-------
TIMINGS
-------

Total SCF time: 0 days 0 hours 0 min 30 sec 

Total time                  ....      30.073 sec
Sum of individual times     ....      28.952 sec  ( 96.3%)

SCF preparation             ....       0.514 sec  (  1.7%)
Fock matrix formation       ....      19.581 sec  ( 65.1%)
  Startup                   ....       0.148 sec  (  0.8% of F)
  Split-RI-J                ....       5.667 sec  ( 28.9% of F)
  XC integration            ....      11.936 sec  ( 61.0% of F)
    XC Preparation          ....       0.000 sec  (  0.0% of XC)
    Basis function eval.    ....       1.716 sec  ( 14.4% of XC)
    Density eval.           ....       0.829 sec  (  6.9% of XC)
    XC-Functional eval.     ....       0.348 sec  (  2.9% of XC)
    XC-Potential eval.      ....       0.838 sec  (  7.0% of XC)
Diagonalization             ....       0.000 sec  (  0.0%)
Density matrix formation    ....       1.410 sec  (  4.7%)
Total Energy calculation    ....       0.777 sec  (  2.6%)
Population analysis         ....       0.038 sec  (  0.1%)
Orbital Transformation      ....       0.063 sec  (  0.2%)
Orbital Orthonormalization  ....       0.000 sec  (  0.0%)
DIIS solution               ....       4.875 sec  ( 16.2%)
SOSCF solution              ....       1.694 sec  (  5.6%)
Finished LeanSCF after  30.1 sec

Maximum memory used throughout the entire LEANSCF-calculation: 8.6 MB


-------------------------------------------------------------------------------
                          DFT DISPERSION CORRECTION                            
                                                                               
                              DFTD3 V3.1  Rev 1                                
                          USING Becke-Johnson damping                          
-------------------------------------------------------------------------------
The BP86 functional is recognized
Active option DFTDOPT                   ...         4   

molecular C6(AA) [au] = 15275.968822 


            DFT-D V3
 parameters
 s6 scaling factor         :     1.0000 
 a1 scaling factor         :     0.3946 
 s8 scaling factor         :     3.2822 
 a2 scaling factor         :     4.8516 
 ad hoc parameters k1-k3   :    16.0000     1.3333    -4.0000 

 Edisp/kcal,au: -27.594572522785  -0.043974745753 
 E6   /kcal   :  -8.163308653 
 E8   /kcal   : -19.431263870 
 % E8         :  70.416977301 

-------------------------   ----------------
Dispersion correction           -0.043974746
-------------------------   ----------------


-------------------------   --------------------
FINAL SINGLE POINT ENERGY      -295.907954528079
-------------------------   --------------------



           ************************************************************
           *        Program running with 8 parallel MPI-processes     *
           *              working on a common directory               *
           ************************************************************
------------------------------------------------------------------------------
                         ORCA SCF GRADIENT CALCULATION
------------------------------------------------------------------------------

Nuc. rep. gradient        (SHARK) ... done (  0.0 sec)
HCore & Overlap gradient  (SHARK) ... done (  0.2 sec)
Split-RIJ-J gradient      (SHARK) ... done (  0.3 sec)
XC gradient                       ... done (  0.5 sec)
Dispersion correction             ... done (  0.1 sec)

-------------------
DISPERSION GRADIENT
-------------------

   1   B   :   -0.000844841   -0.000008097    0.000346896
   2   B   :    0.000429432   -0.000727605    0.000346896
   3   B   :    0.000415409    0.000735702    0.000346896
   4   B   :    0.001009157    0.000109834   -0.000092007
   5   B   :    0.000922399    0.001007990   -0.000133905
   6   B   :    0.000142013    0.001242071   -0.000120983
   7   B   :   -0.000599698    0.000819038   -0.000092007
   8   B   :   -0.001334144    0.000294827   -0.000133905
   9   B   :   -0.001146672   -0.000498049   -0.000120983
  10   B   :   -0.000409459   -0.000928873   -0.000092007
  11   B   :    0.000411745   -0.001302816   -0.000133905
  12   B   :    0.001004659   -0.000744022   -0.000120983

Difference to translation invariance:
           :   -0.0000000000   -0.0000000000    0.0000000000

Difference to rotation invariance:
           :    0.0000000000   -0.0000000000    0.0000000000

Norm of the Dispersion gradient    ...    0.0040007840
RMS gradient                       ...    0.0006667973
MAX gradient                       ...    0.0013341443

------------------
CARTESIAN GRADIENT
------------------

   1   B   :    0.025247338    0.000088778    0.005853123
   2   B   :   -0.012702560    0.021814845    0.005853165
   3   B   :   -0.012544285   -0.021903920    0.005854232
   4   B   :    0.025001262    0.002759452   -0.002292960
   5   B   :    0.014002506    0.014417108   -0.001698901
   6   B   :    0.001927227    0.021575997   -0.001862238
   7   B   :   -0.014890661    0.020275525   -0.002291913
   8   B   :   -0.019488790    0.004915731   -0.001698332
   9   B   :   -0.019644976   -0.009119863   -0.001862043
  10   B   :   -0.010112816   -0.023032783   -0.002293580
  11   B   :    0.005483839   -0.019339354   -0.001698775
  12   B   :    0.017721917   -0.012451516   -0.001861778

Difference to translation invariance:
           :    0.0000000000   -0.0000000000   -0.0000000000

Difference to rotation invariance:
           :    0.0000072354    0.0000078721    0.0000460414

Norm of the Cartesian gradient     ...    0.0810379430
RMS gradient                       ...    0.0135063238
MAX gradient                       ...    0.0252473380

-------
TIMINGS
-------

Total SCF gradient time     ....        1.093 sec

Densities                   ....       0.011 sec  (  1.0%)
One electron gradient       ....       0.200 sec  ( 18.3%)
RI-J Coulomb gradient       ....       0.307 sec  ( 28.1%)
XC gradient                 ....       0.514 sec  ( 47.0%)

Maximum memory used throughout the entire SCFGRAD-calculation: 28.8 MB
------------------------------------------------------------------------------
                         ORCA GEOMETRY RELAXATION STEP
------------------------------------------------------------------------------

Reading the OPT-File                    .... done
Getting information on internals        .... done
Copying old internal coords+grads       .... done
Making the new internal coordinates     .... (2022 redundants) done
Validating the new internal coordinates .... (2022 redundants) done
Calculating the B-matrix                .... done
Calculating the G,G- and P matrices     .... done
Transforming gradient to internals      .... done
Projecting the internal gradient        .... done
Number of atoms                         ....  12
Number of internal coordinates          .... 186
Current Energy                          ....  -295.907954528 Eh
Current gradient norm                   ....     0.081037943 Eh/bohr
Maximum allowed component of the step   ....  0.300
Current trust radius                    ....  0.300
Evaluating the initial hessian          ....  (Almloef) done
Projecting the Hessian                  .... done
Forming the augmented Hessian           .... done
Diagonalizing the augmented Hessian     .... done
Last element of RFO vector              ....  0.733928483
Lowest eigenvalues of augmented Hessian:
 -0.072655045  0.010085525  0.010086680  0.010094120  0.010217487
Length of the computed step             ....  0.925467220
Warning: the length of the step is outside the trust region - taking restricted step instead
The input lambda is                     ....     0.009001
   iter:   5  x=    0.001024  g=40529.879247 f(x)=   129.449625
   iter:  10  x=   -0.063583  g=   92.554572 f(x)=     2.263467
   iter:  15  x=   -0.247981  g=    0.835757 f(x)=     0.012529
The output lambda is                    ....    -0.249512 (19 iterations)
The final length of the internal step   ....  0.300000000
Converting the step to Cartesian space:
 Initial RMS(Int)=    0.0219970673
Transforming coordinates:
 Iter   0:  RMS(Cart)=    0.0499739636 RMS(Int)=    0.0219923445
done
Storing new coordinates                 .... done

                                .--------------------.
          ----------------------|Geometry convergence|-------------------------
          Item                value                   Tolerance       Converged
          ---------------------------------------------------------------------
          RMS gradient        0.0057636343            0.0001000000      NO
          MAX gradient        0.0285551845            0.0003000000      NO
          RMS step            0.0219970673            0.0020000000      NO
          MAX step            0.1076783551            0.0040000000      NO
          -------------------------------------------------------------------------
          ........................................................
          Max(Bonds)      0.0570      Max(Angles)    0.47
          Max(Dihed)        0.17      Max(Improp)    0.00
          ---------------------------------------------------------------------

The optimization has not yet converged - more geometry cycles are needed


    ---------------------------------------------------------------------------
                         Redundant Internal Coordinates
                            (Angstroem and degrees)

        Definition                    Value    dE/dq     Step     New-Value
    ----------------------------------------------------------------------------
     1. B(B   1,B   0)                2.5000  0.028346 -0.0566    2.4434   
     2. B(B   2,B   1)                2.5000  0.028555 -0.0570    2.4430   
     3. B(B   2,B   0)                2.5000  0.028431 -0.0568    2.4432   
     4. B(B   3,B   0)                3.2030  0.013440 -0.0269    3.1761   
     5. B(B   4,B   3)                3.1415  0.015119 -0.0304    3.1111   
     6. B(B   4,B   0)                3.7678  0.010426 -0.0220    3.7457   
     7. B(B   5,B   1)                3.5348  0.011111 -0.0230    3.5118   
     8. B(B   5,B   4)                3.1415  0.018930 -0.0389    3.1026   
     9. B(B   6,B   5)                3.1415  0.015005 -0.0302    3.1113   
    10. B(B   6,B   1)                3.2030  0.013434 -0.0269    3.1761   
    11. B(B   7,B   6)                3.1415  0.015082 -0.0303    3.1112   
    12. B(B   7,B   1)                3.7678  0.010447 -0.0221    3.7457   
    13. B(B   8,B   2)                3.5348  0.011078 -0.0229    3.5118   
    14. B(B   8,B   7)                3.1415  0.018933 -0.0389    3.1026   
    15. B(B   9,B   2)                3.2030  0.013344 -0.0267    3.1763   
    16. B(B   9,B   8)                3.1415  0.015083 -0.0304    3.1111   
    17. B(B  10,B   9)                3.1415  0.015207 -0.0306    3.1109   
    18. B(B  10,B   2)                3.7678  0.010388 -0.0220    3.7458   
[...]
      dyz     :     0.009089
      dx2y2   :     0.013277
      dxy     :     0.014827

  6 B s       :     3.364787  s :     3.364787
      pz      :     0.438829  p :     1.860756
      px      :     0.743976
      py      :     0.677951
      dz2     :     0.003873  d :     0.044731
      dxz     :     0.007165
      dyz     :     0.005592
      dx2y2   :     0.014204
      dxy     :     0.013897

  7 B s       :     3.194125  s :     3.194125
      pz      :     0.439058  p :     1.572429
      px      :     0.563756
      py      :     0.569616
      dz2     :     0.003387  d :     0.047697
      dxz     :     0.006792
      dyz     :     0.006832
      dx2y2   :     0.015443
      dxy     :     0.015242

  8 B s       :     3.364953  s :     3.364953
      pz      :     0.438770  p :     1.860769
      px      :     0.618078
      py      :     0.803922
      dz2     :     0.003871  d :     0.044726
      dxz     :     0.009595
      dyz     :     0.003161
      dx2y2   :     0.014818
      dxy     :     0.013281

  9 B s       :     3.364783  s :     3.364783
      pz      :     0.438684  p :     1.860762
      px      :     0.812512
      py      :     0.609566
      dz2     :     0.003874  d :     0.044729
      dxz     :     0.003068
      dyz     :     0.009688
      dx2y2   :     0.014731
      dxy     :     0.013367

 10 B s       :     3.194387  s :     3.194387
      pz      :     0.439072  p :     1.571584
      px      :     0.568584
      py      :     0.563929
      dz2     :     0.003394  d :     0.047714
      dxz     :     0.006839
      dyz     :     0.006798
      dx2y2   :     0.015417
      dxy     :     0.015266

 11 B s       :     3.364659  s :     3.364659
      pz      :     0.438698  p :     1.860584
      px      :     0.666943
      py      :     0.754944
      dz2     :     0.003876  d :     0.044724
      dxz     :     0.005873
      dyz     :     0.006886
      dx2y2   :     0.014056
      dxy     :     0.014032



                     *******************************
                     * LOEWDIN POPULATION ANALYSIS *
                     *******************************

----------------------
LOEWDIN ATOMIC CHARGES
----------------------
   0 B :   -0.058286
   1 B :   -0.058396
   2 B :   -0.058415
   3 B :   -0.000637
   4 B :    0.059620
   5 B :   -0.000721
   6 B :   -0.000651
   7 B :    0.059588
   8 B :   -0.000589
   9 B :   -0.000591
  10 B :    0.059534
  11 B :   -0.000457

-------------------------------
LOEWDIN REDUCED ORBITAL CHARGES
-------------------------------
  0 B s       :     2.558708  s :     2.558708
      pz      :     0.654190  p :     2.277699
      px      :     0.838080
      py      :     0.785429
      dz2     :     0.021103  d :     0.221879
      dxz     :     0.025689
      dyz     :     0.025352
      dx2y2   :     0.080265
      dxy     :     0.069469

  1 B s       :     2.558633  s :     2.558633
      pz      :     0.654155  p :     2.277808
      px      :     0.786785
      py      :     0.836868
      dz2     :     0.021104  d :     0.221956
      dxz     :     0.025340
      dyz     :     0.025675
      dx2y2   :     0.078968
      dxy     :     0.070868

  2 B s       :     2.558633  s :     2.558633
      pz      :     0.654157  p :     2.277821
      px      :     0.810646
      py      :     0.813018
      dz2     :     0.021106  d :     0.221961
      dxz     :     0.025517
      dyz     :     0.025519
      dx2y2   :     0.065461
      dxy     :     0.084357

  3 B s       :     2.787858  s :     2.787858
      pz      :     0.474178  p :     2.104645
      px      :     0.669525
      py      :     0.960943
      dz2     :     0.011296  d :     0.108134
      dxz     :     0.018143
      dyz     :     0.009098
      dx2y2   :     0.031811
      dxy     :     0.037786

  4 B s       :     2.735902  s :     2.735902
      pz      :     0.462124  p :     2.074906
      px      :     0.812538
      py      :     0.800244
      dz2     :     0.011424  d :     0.129572
      dxz     :     0.014888
      dyz     :     0.014718
      dx2y2   :     0.047165
      dxy     :     0.041376

  5 B s       :     2.787856  s :     2.787856
      pz      :     0.474061  p :     2.104701
      px      :     0.964684
      py      :     0.665957
      dz2     :     0.011305  d :     0.108164
      dxz     :     0.008738
      dyz     :     0.018489
      dx2y2   :     0.031950
      dxy     :     0.037683

  6 B s       :     2.787842  s :     2.787842
      pz      :     0.474163  p :     2.104659
      px      :     0.842866
      py      :     0.787630
      dz2     :     0.011304  d :     0.108150
      dxz     :     0.015207
      dyz     :     0.012010
      dx2y2   :     0.035895
      dxy     :     0.033734

  7 B s       :     2.735842  s :     2.735842
      pz      :     0.462195  p :     2.074978
      px      :     0.675020
      py      :     0.937763
      dz2     :     0.011428  d :     0.129592
      dxz     :     0.013030
      dyz     :     0.016582
      dx2y2   :     0.042626
      dxy     :     0.045927

  8 B s       :     2.787894  s :     2.787894
      pz      :     0.474120  p :     2.104556
      px      :     0.705811
      py      :     0.924625
      dz2     :     0.011299  d :     0.108138
      dxz     :     0.019570
      dyz     :     0.007647
      dx2y2   :     0.037074
      dxy     :     0.032548

  9 B s       :     2.787912  s :     2.787912
      pz      :     0.474046  p :     2.104533
      px      :     0.933408
      py      :     0.697079
      dz2     :     0.011303  d :     0.108146
      dxz     :     0.007488
      dyz     :     0.019735
      dx2y2   :     0.036707
      dxy     :     0.032913

 10 B s       :     2.735708  s :     2.735708
      pz      :     0.462262  p :     2.075103
      px      :     0.931694
      py      :     0.681147
      dz2     :     0.011430  d :     0.129655
      dxz     :     0.016525
      dyz     :     0.013145
      dx2y2   :     0.043033
      dxy     :     0.045522

 11 B s       :     2.787951  s :     2.787951
      pz      :     0.474139  p :     2.104362
      px      :     0.775135
      py      :     0.855089
      dz2     :     0.011301  d :     0.108143
      dxz     :     0.012536
      dyz     :     0.014708
      dx2y2   :     0.035419
      dxy     :     0.034179



                      *****************************
                      * MAYER POPULATION ANALYSIS *
                      *****************************

  NA   - Mulliken gross atomic population
  ZA   - Total nuclear charge
  QA   - Mulliken gross atomic charge
  VA   - Mayer's total valence
  BVA  - Mayer's bonded valence
  FA   - Mayer's free valence

  ATOM       NA         ZA         QA         VA         BVA        FA
  0 B      4.6467     5.0000     0.3533     2.8180     2.8180     0.0000
  1 B      4.6448     5.0000     0.3552     2.8156     2.8156     0.0000
  2 B      4.6451     5.0000     0.3549     2.8158     2.8158     0.0000
  3 B      5.2699     5.0000    -0.2699     3.2803     3.2803    -0.0000
  4 B      4.8145     5.0000     0.1855     3.3148     3.3148    -0.0000
  5 B      5.2701     5.0000    -0.2701     3.2800     3.2800     0.0000
  6 B      5.2703     5.0000    -0.2703     3.2797     3.2797    -0.0000
  7 B      4.8143     5.0000     0.1857     3.3149     3.3149     0.0000
  8 B      5.2704     5.0000    -0.2704     3.2795     3.2795     0.0000
  9 B      5.2703     5.0000    -0.2703     3.2789     3.2789     0.0000
 10 B      4.8137     5.0000     0.1863     3.3150     3.3150    -0.0000
 11 B      5.2700     5.0000    -0.2700     3.2793     3.2793    -0.0000

  Mayer bond orders larger than 0.100000
B(  0-B ,  1-B ) :   0.4782 B(  0-B ,  2-B ) :   0.4778 B(  0-B ,  3-B ) :   0.5076 
B(  0-B ,  4-B ) :   0.4391 B(  0-B , 10-B ) :   0.4398 B(  0-B , 11-B ) :   0.5073 
B(  1-B ,  2-B ) :   0.4773 B(  1-B ,  4-B ) :   0.4390 B(  1-B ,  5-B ) :   0.5068 
B(  1-B ,  6-B ) :   0.5068 B(  1-B ,  7-B ) :   0.4389 B(  2-B ,  7-B ) :   0.4392 
B(  2-B ,  8-B ) :   0.5070 B(  2-B ,  9-B ) :   0.5069 B(  2-B , 10-B ) :   0.4392 
B(  3-B ,  4-B ) :   1.0805 B(  3-B , 11-B ) :   1.4829 B(  4-B ,  5-B ) :   1.0810 
B(  5-B ,  6-B ) :   1.4833 B(  6-B ,  7-B ) :   1.0809 B(  7-B ,  8-B ) :   1.0808 
B(  8-B ,  9-B ) :   1.4831 B(  9-B , 10-B ) :   1.0803 B( 10-B , 11-B ) :   1.0802 


-------
TIMINGS
-------

Total SCF time: 0 days 0 hours 0 min 6 sec 

Total time                  ....       6.430 sec
Sum of individual times     ....       6.045 sec  ( 94.0%)

SCF preparation             ....       1.155 sec  ( 18.0%)
Fock matrix formation       ....       3.644 sec  ( 56.7%)
  Startup                   ....       0.038 sec  (  1.1% of F)
  Split-RI-J                ....       1.211 sec  ( 33.2% of F)
  XC integration            ....       2.499 sec  ( 68.6% of F)
    Basis function eval.    ....       0.255 sec  ( 10.2% of XC)
    Density eval.           ....       0.177 sec  (  7.1% of XC)
    XC-Functional eval.     ....       0.027 sec  (  1.1% of XC)
    XC-Potential eval.      ....       0.213 sec  (  8.5% of XC)
Diagonalization             ....       0.000 sec  (  0.0%)
Density matrix formation    ....       0.035 sec  (  0.5%)
Total Energy calculation    ....       0.072 sec  (  1.1%)
Population analysis         ....       0.560 sec  (  8.7%)
Orbital Transformation      ....       0.015 sec  (  0.2%)
Orbital Orthonormalization  ....       0.000 sec  (  0.0%)
DIIS solution               ....       0.039 sec  (  0.6%)
SOSCF solution              ....       0.525 sec  (  8.2%)
Finished LeanSCF after   6.8 sec

Maximum memory used throughout the entire LEANSCF-calculation: 13.9 MB


-------------------------------------------------------------------------------
                          DFT DISPERSION CORRECTION                            
                                                                               
                              DFTD3 V3.1  Rev 1                                
                          USING Becke-Johnson damping                          
-------------------------------------------------------------------------------
The BP86 functional is recognized
Active option DFTDOPT                   ...         4   

molecular C6(AA) [au] = 4351.781196 


            DFT-D V3
 parameters
 s6 scaling factor         :     1.0000 
 a1 scaling factor         :     0.3946 
 s8 scaling factor         :     3.2822 
 a2 scaling factor         :     4.8516 
 ad hoc parameters k1-k3   :    16.0000     1.3333    -4.0000 

 Edisp/kcal,au: -20.738102261894  -0.033048266053 
 E6   /kcal   :  -5.977249174 
 E8   /kcal   : -14.760853088 
 % E8         :  71.177453468 

-------------------------   ----------------
Dispersion correction           -0.033048266
-------------------------   ----------------


-------------------------   --------------------
FINAL SINGLE POINT ENERGY      -297.750640144919
-------------------------   --------------------

                                *** OPTIMIZATION RUN DONE ***



           ************************************************************
           *        Program running with 8 parallel MPI-processes     *
           *              working on a common directory               *
           ************************************************************

------------------------------------------------------------------------------
                              ORCA PROPERTY CALCULATIONS
------------------------------------------------------------------------------

GBWName                                 ... quasi_planar_nn2.50.gbw
Number of atoms                         ...     12
Number of basis functions               ...    168
Max core memory                         ...   2500 MB

Electric properties:
Dipole moment                           ... YES
Quadrupole moment                       ...  NO
Static polarizability (Dipole/Dipole)   ...  NO
Static polarizability (Dipole/Quad.)    ...  NO
Static polarizability (Quad./Quad.)     ...  NO
Static polarizability (Velocity)        ...  NO
Static hyperpolarizability              ...  NO

Atomic electric properties:
Dipole moment                           ...  NO
Quadrupole moment                       ...  NO
Static polarizability                   ...  NO

Choice of electric origin               ... Center of mass
Position of electric origin             ...    -0.000000    -0.000000     0.000000

General magnetic properties:
Magnetizability                         ...  NO

EPR properties:
g-Tensor (aka g-matrix)                 ...  NO
Zero-Field splitting spin-orbit         ...  NO
Zero-field splitting spin-spin          ...  NO
Hyperfine couplings                     ...  NO (   0 nuclei)
Quadrupole couplings                    ...  NO (   0 nuclei)
Contact density                         ...  NO (   0 nuclei)

NMR properties:
Chemical shifts                         ...  NO (   0 nuclei)
Spin-rotation constants                 ...  NO (   0 nuclei)
Spin-spin couplings                     ...  NO (   0 nuclei,    0 pairs)

Choice of magnetic origin               ... GIAO
Position of magnetic origin             ...     0.000000     0.000000     0.000000

Properties with geometric perturbations:
SCF Hessian                             ...  NO
IR spectrum                             ...  NO
VCD spectrum                            ...  NO
X-ray spectroscopy properties:
SCF XES/XAS/RIXS spectra                ...  NO

SCF SOC stabilization energy            ...  NO
Diagonal Born-Oppenheimer correction    ...  NO

-------------
DIPOLE MOMENT
-------------

Method             : SCF
Type of density    : Electron Density
Multiplicity       :   1
Irrep              :   0
Energy             :  -297.7175918788657896 Eh
Basis              : AO
                                X                 Y                 Z
Electronic contribution:      0.000706456      -0.001277511      -0.776546944
Nuclear contribution   :     -0.000000000      -0.000000000       0.000000000
                        -----------------------------------------
Total Dipole Moment    :      0.000706456      -0.001277511      -0.776546944
                        -----------------------------------------
Magnitude (a.u.)       :      0.776548316
Magnitude (Debye)      :      1.973828957



--------------------
Rotational spectrum 
--------------------
 
Rotational constants in cm-1:             0.058813             0.058804             0.030095 
Rotational constants in MHz :          1763.160893          1762.890237           902.217155 

Dipole components along the rotational axes: 
x,y,z [a.u.] :    -0.000125    -0.001230    -0.776547 
x,y,z [Debye]:    -0.000318    -0.003126    -1.973826 

 

Dipole moment calculation done in   0.1 sec 

Maximum memory used throughout the entire PROP-calculation: 10.8 MB

--------------------------------
SUGGESTED CITATIONS FOR THIS RUN
--------------------------------

Below you find a list of papers that are relevant to this ORCA run
We neither can nor want to force you to cite these papers, but we appreciate if you do
You receive ORCA, which is the product of decades of hard work by many enthusiastic individuals, for free
The only thing we kindly ask in return is that you cite our papers,
We deeply appreciate it, if you show your appreciation for ORCA by not just citing the generic ORCA reference.

Please note that relegating all ORCA citations to the supporting information does *not* help us.
SI sections are not indexed - citations you put there will not count into any citation statistics
But we need these citations in order to attract the funding resources that allow us to do what we are doing

Therefore, if you are a happy ORCA user, please consider citing a few of the papers listed below in the main body of your paper

In addition to the list printed below, the program has created the file quasi_planar_nn2.50.bibtex that contains the list in bibtex format
You can import this file easily into all common literature databanks and citation aid programs

It goes without saying that in many instances, there are alternative algorithms to achieve similar
results as the ones you have gotten from ORCA. It is, of course, also the case that in some instances
ORCA just re-implements algorithms worked out by others. We are fully aware of that and we are also
fully appreciative of our colleagues work. Hence this citation list should not be read as indicating
that the listed papers, which are focused on our own work, are the only ones worth citing. It simply
meant to make it easier for users to cite ORCA specific papers. It is not a substitute for doing your
own literature research and citing the relevant literature in a scientifically appropriate manner.

List of essential papers. We consider these as the minimum necessary citations

  1. Neese, F.
     Software update: the ORCA program system, version 6.0
     WIRES Comput. Molec. Sci. 2025 15(1), e70019
     doi.org/10.1002/wcms.70019

List of papers to cite with high priority. The work reported in these papers was absolutely
necessary for this run to complete.
Our perspective: the developers of density functionals and basis sets usually get cited in chemistry papers
Good! But without the algorithms to do something with them, the functionals or basis sets would not do anything.
Hence, in our opinion, the algorithm design and method developments papers are equally worthy of getting cited

  1. Neese, F.
     An improvement of the resolution of the identity approximation for the formation of the Coulomb matrix
     J. Comp. Chem. 2003 24(14), 1740-1747
     doi.org/10.1002/jcc.10318
  2. Grimme, S.; Antony, J.; Ehrlich, S.; Krieg, H.
     A consistent and accurate ab initio parametrization of density functional dispersion correction (DFT-D) for the 94 elements H-Pu
     J. Chem. Phys. 2010 132 , 154104
     doi.org/10.1063/1.3382344
  3. Grimme, S.; Ehrlich, S.; Goerigk, L.
     Effect of the damping function in dispersion corrected density functional theory
     J. Comput. Chem. 2011 32(7), 1456-1465
     doi.org/10.1002/jcc.21759
  4. Neese, F.
     The SHARK Integral Generation and Digestion System
     J. Comp. Chem. 2022 44(3), 381
     doi.org/10.1002/jcc.26942

List of suggested additional citations. These are papers that are important in the 'surrounding' of 
of this run, or papers that preceded the highly important papers. If you like your results we are grateful for a citation.

  1. Neese, F.
     The ORCA program system
     WIRES Comput. Molec. Sci. 2012 2(1), 73-78
     doi.org/10.1002/wcms.81
  2. Neese, F.
     Software update: the ORCA program system, version 4.0
     WIRES Comput. Molec. Sci. 2018 8(1), 1-6
     doi.org/10.1002/wcms.1327
  3. Neese, F.; Wennmohs, F.; Becker, U.; Riplinger, C.
     The ORCA quantum chemistry program package
     J. Chem. Phys. 2020 152(22), 224108
     doi.org/10.1063/5.0004608
  4. Neese, F.
     Software update: The ORCA program system—Version 5.0
     WIRES Comput. Molec. Sci. 2022 12(1), e1606
     doi.org/10.1002/wcms.1606

List of optional additional citations

  1. Neese, F.
     Approximate second-order SCF convergence for spin unrestricted wavefunctions
     Chem. Phys. Lett. 2000 325(1-3), 93-98
     doi.org/10.1016/s0009-2614(00)00662-x

Timings for individual modules:

Sum of individual times          ...     1421.088 sec (=  23.685 min)
Startup calculation              ...      163.465 sec (=   2.724 min)  11.5 %
SCF iterations                   ...     1021.086 sec (=  17.018 min)  71.9 %
Property calculations            ...        1.064 sec (=   0.018 min)   0.1 %
SCF Gradient evaluation          ...      233.056 sec (=   3.884 min)  16.4 %
Geometry relaxation              ...        2.416 sec (=   0.040 min)   0.2 %
                             ****ORCA TERMINATED NORMALLY****
TOTAL RUN TIME: 0 days 0 hours 25 minutes 1 seconds 927 msec
