
                                 *****************
                                 * O   R   C   A *
                                 *****************

                                            #,                                       
                                            ###                                      
                                            ####                                     
                                            #####                                    
                                            ######                                   
                                           ########,                                 
                                     ,,################,,,,,                         
                               ,,#################################,,                 
                          ,,##########################################,,             
                       ,#########################################, ''#####,          
                    ,#############################################,,   '####,        
                  ,##################################################,,,,####,       
                ,###########''''           ''''###############################       
              ,#####''   ,,,,##########,,,,          '''####'''          '####       
            ,##' ,,,,###########################,,,                        '##       
           ' ,,###''''                  '''############,,,                           
         ,,##''                                '''############,,,,        ,,,,,,###''
      ,#''                                            '''#######################'''  
     '                                                          ''''####''''         
             ,#######,   #######,   ,#######,      ##                                
            ,#'     '#,  ##    ##  ,#'     '#,    #''#        ,####,    ,#,          
            ##       ##  ##   ,#'  ##            #'  '#       #'       ,# #          
            ##       ##  #######   ##           ,######,      #####,      #          
            '#,     ,#'  ##    ##  '#,     ,#' ,#      #,     #,   #      #          
             '#######'   ##     ##  '#######'  #'      '#     '####' #    #          



                #########################################################
                #                        -***-                          #
                #          Department of theory and spectroscopy        #
                #                                                       #
                #                      Frank Neese                      #
                #                                                       #
                #     Directorship, Architecture, Infrastructure        #
                #                    SHARK, DRIVERS                     #
                #        Core code/Algorithms in most modules           #
                #                                                       #
                #        Max Planck Institute fuer Kohlenforschung      #
                #                Kaiser Wilhelm Platz 1                 #
                #                 D-45470 Muelheim/Ruhr                 #
                #                      Germany                          #
                #                                                       #
                #                  All rights reserved                  #
                #                        -***-                          #
                #########################################################


                         Program Version 6.1.1  -  RELEASE   -
                                (GIT: $487d211c$)
                          ($2025-11-21 10:33:24 +0100$)
                                                                         
                                  - NO-DMRG VERSION -                    
                                                                         


 With contributions from (in alphabetic order):
[Max-Planck-Institut fuer Kohlenforschung]                               
  Daniel Aravena         : Magnetic Suceptibility                        
  Michael Atanasov       : Ab Initio Ligand Field Theory (pilot matlab implementation)
  Alexander A. Auer      : GIAO ZORA, VPT2 properties, NMR spectrum      
  Ute Becker             : All parallelization in ORCA, NUMFREQ, NUMCALC 
  Giovanni Bistoni       : ED, misc. LED, open-shell LED, HFLD           
  Dmytro Bykov           : pre 5.0 version of the SCF Hessian            
  Marcos Casanova-Páez   : Triplet and SCS-CIS(D). UHF-(DLPNO)-IP/EA/STEOM-CCSD. UHF-CVS-IP/STEOM-CCSD   
  Vijay G. Chilkuri      : MRCI spin determinant printing, contributions to CSF-ICE 
  Pauline Colinet        : FMM embedding                                 
  Dipayan Datta          : RHF DLPNO-CCSD density                        
  Achintya Kumar Dutta   : EOM-CC, STEOM-CC                              
  Nicolas Foglia         : Exact transition moments, OPA infrastructure, MCD improvements    
  Dmitry Ganyushin       : Spin-Orbit,Spin-Spin,Magnetic field MRCI      
  Miquel Garcia-Rates    : C-PCM and meta-GGA Hessian, CCSD/C-PCM, Gaussian charge scheme 
  Tiago L. C. Gouveia    : GS-ROHF, GS-ROCIS                             
  Yang Guo               : DLPNO-NEVPT2, F12-NEVPT2, CIM, IAO-localization        
  Andreas Hansen         : Spin unrestricted coupled pair/coupled cluster methods 
  Ingolf Harden          : AUTO-CI MPn and infrastructure                
  Benjamin Helmich-Paris : MC-RPA, TRAH-(SCF,CASSCF), AVAS, COSX integrals, SCF dyn. polar., MC-PDFT, srDFT 
  Lee Huntington         : MR-EOM, pCC                                   
  Robert Izsak           : Overlap fitted RIJCOSX, COSX-SCS-MP3, EOM     
  Riya Kayal             : Wick's Theorem for AUTO-CI, AUTO-CI UHF-CCSDT 
  Emily Kempfer          : AUTO-CI RHF CISDT and CCSDT, approximate NEVPT4
  Christian Kollmar      : KDIIS, OOCD, Brueckner-CCSD(T), CCSD density, CASPT2, CASPT2-K, improved NEVPT2 
  Axel Koslowski         : Symmetry handling                             
  Simone Kossmann        : meta-GGA functionals, TD-DFT gradient, OOMP2, (MP2 Hessian; deprecated post 5.0) 
  Lucas Lang             : DCDCAS, Hyperfine gauge corrections, ICE-SOC+SSC
  Marvin Lechner         : AUTO-CI (C++ implementation), FIC-MRCC        
  Spencer Leger          : CASSCF response                               
  Dagmar Lenk            : GEPOL surface, SMD, ORCA-2-JSON               
  Dimitrios Liakos       : Extrapolation schemes; Compound Job, Property file
  Dimitrios Manganas     : Further ROCIS development; embedding schemes. LFT, Crystal Embedding 
  Dimitrios Pantazis     : SARC Basis sets                               
  Anastasios Papadopoulos: AUTO-CI, single reference methods and gradients 
  Taras Petrenko         : pre 6.0 DFT Hessian and TD-DFT gradient,  ECA, NRVS 
  Petra Pikulova         : Analytic Raman intensities                    
  Peter Pinski           : DLPNO-MP2, DLPNO-MP2 Gradient                 
  Shashank Vittal Rao    : ES-AILFT, MagRelax                            
  Christoph Reimann      : Effective Core Potentials                     
  Marius Retegan         : Local ZFS, SOC                                
  Christoph Riplinger    : Optimizer, TS searches, QM/MM, DLPNO-CCSD(T), (RO)-DLPNO pert. Triples 
  Michael Roemelt        : Original ROCIS implementation, recursive CI coupling coefficients
  Masaaki Saitow         : Open-shell DLPNO-CCSD energy and density      
  Barbara Sandhoefer     : DKH picture change effects                    
  Yorick L. A. Schmerwitz: GMF and freeze-and-release deltaSCF, NEB S-IDPP initial path                    
  Kantharuban Sivalingam : CASSCF convergence/infrastructure, NEVPT2, NEVPT3, NEVPT4(SD), FIC-MRCI and CEPA variants
  Bernardo de Souza      : ESD, SOC TD-DFT                               
  Georgi L. Stoychev     : AutoAux, RI-MP2 NMR, DLPNO-MP2 response, X2C  
  Van Anh Tran           : RI-MP2 g-tensors                              
  Willem Van den Heuvel  : Paramagnetic NMR                              
  Zikuan Wang            : NOTCH, Electric field optimization            
  Frank Wennmohs         : Technical directorship and infrastructure     
  Hang Xu                : AUTO-CI-Response properties                   
                                                                         
[FACCTs GmbH]                                                            
  Markus Bursch, Nicolas Foglia, Miquel Garcia-Rates, Ingolf Harden, Hagen Neugebauer, Anastasios Papadopoulos, 
  Christoph Riplinger, Bernardo de Souza, Georgi L. Stoychev                                                    
                                                                 
  APM, various basis sets, CI-OPT, improved COSX, DLPNO-Multilevel,           
  DOCKER, DRACO, updates on ESD, Fragmentator, GOAT, IRC, LR-CPCM, L-BFGS, MBIS, meta-GGA TD-DFT gradient, ML-optimized integration grids, 
  MM, NACMEs, nearIR, NEB, NEB-TS, NL-DFT gradient (VV10), 2- and 3-layer-ONIOM, interface openCOSMO-RS, QMMM,   
  Crystal-QMMM, RESP, rigid body optimization, SF, symmetry and pop. for TD-DFT, various functionals, SOLVATOR                                   
                                                                         
[Other institutions]                                                     
  V. Asgeirsson          : NEB                                           
  Christoph Bannwarth    : sTDA-DFT, sTD-DFT, PBEh-3c, B97-3c, D3        
  Giovanni Bistoni       : ETS/NOCV, ADLD/ADEX, COVALED                  
  Martin Brehm           : Molecular dynamics                            
  Ronald Cardenas        : ETS/NOCV                                      
  Martina Colucci        : COVALED                                       
  Sebastian Ehlert       : rSCAN, r2SCAN, r2SCAN-3c, D4, dhf basis sets  
  Marvin Friede          : D4 for Fr, Ra, Ac-Lr                          
  Lars Goerigk           : TD-DFT with DH, B97 family of functionals     
  Stefan Grimme          : VdW corrections, initial TS optimization, DFT functionals, gCP, sTDA/sTD-DF 
  Waldemar Hujo          : DFT-NL                                        
  H. Jonsson             : NEB                                           
  Holger Kruse           : gCP                                           
  Marcel Mueller         : wB97X-3c, vDZP basis set                      
  Hagen Neugebauer       : wr2SCAN, Native XTB                           
  Gianluca Regni         : ADLD/ADEX                                     
  Tobias Risthaus        : pre 6.0 range-separated hybrid DFT and stability analysis
  Lukas Wittmann         : regularized MP2, r2SCAN double-hybrids, wr2SCAN        
                                                                         
We gratefully acknowledge several colleagues who have allowed us to      
interface, adapt or use parts of their codes:                            
  Ed Valeev, F. Pavosevic, A. Kumar             : LibInt (2-el integral package), F12 methods 
  Garnet Chan, S. Sharma, J. Yang, R. Olivares  : DMRG                   
  Ulf Ekstrom                                   : XCFun DFT Library      
  Mihaly Kallay                                 : mrcc  (arbitrary order and MRCC methods)
  Frank Weinhold                                : gennbo (NPA and NBO analysis)           
  Simon Mueller                                 : openCOSMO-RS                            
  Christopher J. Cramer and Donald G. Truhlar   : smd solvation model                     
  S Lehtola, MJT Oliveira, MAL Marques          : LibXC Library                           
  Liviu Ungur et al                             : ANISO software                          


 Your calculation uses the libint2 library for the computation of 2-el integrals
 For citations please refer to: http://libint.valeyev.net

 Your ORCA version has been built with support for libXC version: 7.0.0
 For citations please refer to: https://libxc.gitlab.io

 This ORCA versions uses:
   CBLAS   interface :  Fast vector & matrix operations
   LAPACKE interface :  Fast linear algebra routines
   SCALAPACK package :  Parallel linear algebra routines
   Shared memory     :  Shared parallel matrices
   BLAS/LAPACK       :  OpenBLAS 0.3.29  USE64BITINT DYNAMIC_ARCH NO_AFFINITY Zen SINGLE_THREADED
        Core in use  :  Zen
   Copyright (c) 2011-2014, The OpenBLAS Project


  ***********************************
  * Starting time: Thu Apr 23 11:49:28 2026
  * Host name:     vmi3233575
  * Process ID:    1178551
  * Working dir.:  /root/b12_scan/jobs/double_ring_nn1.80
  ***********************************

NOTE: MaxCore=2500 MB was set to SCF,MP2,MDCI,CIPSI,MRCI,RASCI and CIS
      => If you want to overwrite this, your respective input block should be placed after the MaxCore statement
Your calculation utilizes the atom-pairwise dispersion correction
with the Becke-Johnson damping scheme (D3BJ)


================================================================================

----- Orbital basis set information -----
Your calculation utilizes the basis: def2-SVP
   F. Weigend and R. Ahlrichs, Phys. Chem. Chem. Phys. 7, 3297 (2005).

----- AuxJ basis set information -----
Your calculation utilizes the auxiliary basis: def2/J
   H-Rn: F. Weigend, Phys. Chem. Chem. Phys. 8, 1057 (2006).
   Fr-Lr: K. Eichkorn, F. Weigend, O. Treutler, R. Ahlrichs; Theor. Chem. Acc. 97, 119 (1997).

================================================================================
                                        WARNINGS
                       Please study these warnings very carefully!
================================================================================


WARNING: Geometry Optimization
  ===> : Switching off AutoStart
         For restart on a previous wavefunction, please use MOREAD

================================================================================
                                       INPUT FILE
================================================================================
NAME = double_ring_nn1.80.inp
|  1> ! BP86 def2-SVP def2/J RI Opt TightSCF D3BJ
|  2> ! SlowConv
|  3> 
|  4> %pal nprocs 8 end
|  5> %maxcore 2500
|  6> 
|  7> %geom
|  8>   MaxIter 300
|  9> end
| 10> 
| 11> * xyz 0 1
| 12> B     -0.90000000     -0.00000000      0.00000000
| 13> B     -2.02500000      1.94855716      0.00000000
| 14> B     -4.27500000      1.94855716      0.00000000
| 15> B     -5.40000000      0.00000000      0.00000000
| 16> B     -4.27500000     -1.94855716      0.00000000
| 17> B     -2.02500000     -1.94855716      0.00000000
| 18> B      5.40000000     -0.00000000      0.00000000
| 19> B      4.27500000      1.94855716      0.00000000
| 20> B      2.02500000      1.94855716      0.00000000
| 21> B      0.90000000      0.00000000      0.00000000
| 22> B      2.02500000     -1.94855716      0.00000000
| 23> B      4.27500000     -1.94855716      0.00000000
| 24> *
| 25> 
| 26>                          ****END OF INPUT****
================================================================================

                       *****************************
                       * Geometry Optimization Run *
                       *****************************

Geometry optimization settings:
Update method            Update   .... BFGS
Choice of coordinates    CoordSys .... (2022) Redundant Internals
Initial Hessian          InHess   .... Almloef's Model
Max. no of cycles        MaxIter  .... 300

Convergence Tolerances:
Energy Change            TolE     ....  5.0000e-06 Eh
Max. Gradient            TolMAXG  ....  3.0000e-04 Eh/bohr
RMS Gradient             TolRMSG  ....  1.0000e-04 Eh/bohr
Max. Displacement        TolMAXD  ....  4.0000e-03 bohr
RMS Displacement         TolRMSD  ....  2.0000e-03 bohr
Strict Convergence                .... False

------------------------------------------------------------------------------
                        ORCA OPTIMIZATION COORDINATE SETUP
------------------------------------------------------------------------------

The optimization will be done in redundant internal coordinates (2022)
Making redundant internal coordinates   ...  (2022 redundants) done
Evaluating the initial hessian          ...  (Almloef) done
Evaluating the coordinates              ...  done
Calculating the B-matrix                .... done
Calculating the G-matrix                .... done
The number of degrees of freedom        ....   49

    -----------------------------------------------------------------
                    Redundant Internal Coordinates


    -----------------------------------------------------------------
         Definition                    Initial Value    Approx d2E/dq
    -----------------------------------------------------------------
      1. B(B   1,B   0)                  2.2500         0.035588   
      2. B(B   2,B   1)                  2.2500         0.035588   
      3. B(B   3,B   2)                  2.2500         0.035588   
      4. B(B   4,B   3)                  2.2500         0.035588   
      5. B(B   5,B   4)                  2.2500         0.035588   
      6. B(B   5,B   0)                  2.2500         0.035588   
      7. B(B   7,B   6)                  2.2500         0.035588   
      8. B(B   8,B   7)                  2.2500         0.035588   
      9. B(B   9,B   8)                  2.2500         0.035588   
     10. B(B   9,B   0)                  1.8000         0.185885   
     11. B(B  10,B   9)                  2.2500         0.035588   
     12. B(B  11,B  10)                  2.2500         0.035588   
     13. B(B  11,B   6)                  2.2500         0.035588   
     14. A(B   1,B   0,B   9)          120.0000         0.232570   
     15. A(B   5,B   0,B   9)          120.0000         0.232570   
     16. A(B   1,B   0,B   5)          120.0000         0.187756   
     17. A(B   0,B   1,B   2)          120.0000         0.187756   
     18. A(B   1,B   2,B   3)          120.0000         0.187756   
     19. A(B   2,B   3,B   4)          120.0000         0.187756   
     20. A(B   3,B   4,B   5)          120.0000         0.187756   
     21. A(B   0,B   5,B   4)          120.0000         0.187756   
     22. A(B   7,B   6,B  11)          120.0000         0.187756   
     23. A(B   6,B   7,B   8)          120.0000         0.187756   
     24. A(B   7,B   8,B   9)          120.0000         0.187756   
     25. A(B   8,B   9,B  10)          120.0000         0.187756   
     26. A(B   0,B   9,B  10)          120.0000         0.232570   
     27. A(B   0,B   9,B   8)          120.0000         0.232570   
     28. A(B   9,B  10,B  11)          120.0000         0.187756   
     29. A(B   6,B  11,B  10)          120.0000         0.187756   
     30. D(B   2,B   1,B   0,B   5)      0.0000         0.010000   
     31. D(B   2,B   1,B   0,B   9)    180.0000         0.010000   
     32. D(B   3,B   2,B   1,B   0)      0.0000         0.010000   
     33. D(B   4,B   3,B   2,B   1)      0.0000         0.010000   
     34. D(B   5,B   4,B   3,B   2)      0.0000         0.010000   
     35. D(B   4,B   5,B   0,B   1)      0.0000         0.010000   
     36. D(B   4,B   5,B   0,B   9)    180.0000         0.010000   
     37. D(B   0,B   5,B   4,B   3)      0.0000         0.010000   
     38. D(B   8,B   7,B   6,B  11)      0.0000         0.010000   
     39. D(B   9,B   8,B   7,B   6)      0.0000         0.010000   
     40. D(B  10,B   9,B   0,B   5)      0.0000         0.010000   
     41. D(B  10,B   9,B   0,B   1)    180.0000         0.010000   
     42. D(B   8,B   9,B   0,B   5)    180.0000         0.010000   
     43. D(B   0,B   9,B   8,B   7)    180.0000         0.010000   
     44. D(B   8,B   9,B   0,B   1)      0.0000         0.010000   
     45. D(B  10,B   9,B   8,B   7)      0.0000         0.010000   
     46. D(B  11,B  10,B   9,B   8)      0.0000         0.010000   
     47. D(B  11,B  10,B   9,B   0)    180.0000         0.010000   
     48. D(B   6,B  11,B  10,B   9)      0.0000         0.010000   
     49. D(B  10,B  11,B   6,B   7)      0.0000         0.010000   
    -----------------------------------------------------------------

Number of atoms                         .... 12
Number of degrees of freedom            .... 49


         *************************************************************
         *                GEOMETRY OPTIMIZATION CYCLE   1            *
         *************************************************************
---------------------------------
CARTESIAN COORDINATES (ANGSTROEM)
---------------------------------
  B     -0.900000   -0.000000    0.000000
  B     -2.025000    1.948557    0.000000
  B     -4.275000    1.948557    0.000000
  B     -5.400000    0.000000    0.000000
  B     -4.275000   -1.948557    0.000000
  B     -2.025000   -1.948557    0.000000
  B      5.400000   -0.000000    0.000000
  B      4.275000    1.948557    0.000000
  B      2.025000    1.948557    0.000000
  B      0.900000    0.000000    0.000000
  B      2.025000   -1.948557    0.000000
  B      4.275000   -1.948557    0.000000

----------------------------
CARTESIAN COORDINATES (A.U.)
----------------------------
  NO LB      ZA    FRAG     MASS         X           Y           Z
   0 B     5.0000    0    10.810   -1.700754   -0.000000    0.000000
   1 B     5.0000    0    10.810   -3.826695    3.682239    0.000000
   2 B     5.0000    0    10.810   -8.078579    3.682239    0.000000
   3 B     5.0000    0    10.810  -10.204521    0.000000    0.000000
   4 B     5.0000    0    10.810   -8.078579   -3.682239    0.000000
   5 B     5.0000    0    10.810   -3.826695   -3.682239    0.000000
   6 B     5.0000    0    10.810   10.204521   -0.000000    0.000000
   7 B     5.0000    0    10.810    8.078579    3.682239    0.000000
   8 B     5.0000    0    10.810    3.826695    3.682239    0.000000
   9 B     5.0000    0    10.810    1.700754    0.000000    0.000000
  10 B     5.0000    0    10.810    3.826695   -3.682239    0.000000
  11 B     5.0000    0    10.810    8.078579   -3.682239    0.000000

--------------------------------
INTERNAL COORDINATES (ANGSTROEM)
--------------------------------
 B      0   0   0     0.000000000000     0.00000000     0.00000000
 B      1   0   0     2.250000001286     0.00000000     0.00000000
 B      2   1   0     2.250000000000   119.99999998     0.00000000
 B      3   2   1     2.250000001286   119.99999998     0.00000000
 B      4   3   2     2.250000001286   120.00000004     0.00000000
 B      5   4   3     2.250000000000   119.99999998     0.00000000
 B      1   2   3     6.300000000000   119.99999998   180.00000000
 B      7   1   2     2.250000001286    60.00000002     0.00000000
 B      8   7   1     2.250000000000   119.99999998     0.00000000
 B      1   2   3     1.800000000000   119.99999998   180.00000085
 B     10   1   2     2.250000001286   119.99999998   180.00000000
 B     11  10   1     2.250000000000   119.99999998   180.00000000

---------------------------
INTERNAL COORDINATES (A.U.)
---------------------------
 B      0   0   0     0.000000000000     0.00000000     0.00000000
 B      1   0   0     4.251883803753     0.00000000     0.00000000
 B      2   1   0     4.251883801323   119.99999998     0.00000000
 B      3   2   1     4.251883803753   119.99999998     0.00000000
 B      4   3   2     4.251883803753   120.00000004     0.00000000
 B      5   4   3     4.251883801323   119.99999998     0.00000000
 B      1   2   3    11.905274643704   119.99999998   180.00000000
 B      7   1   2     4.251883803753    60.00000002     0.00000000
 B      8   7   1     4.251883801323   119.99999998     0.00000000
 B      1   2   3     3.401507041058   119.99999998   180.00000085
 B     10   1   2     4.251883803753   119.99999998   180.00000000
 B     11  10   1     4.251883801323   119.99999998   180.00000000

---------------------
BASIS SET INFORMATION
---------------------
There are 1 groups of distinct atoms

 Group   1 Type B   : 7s4p1d contracted to 3s2p1d pattern {511/31/1}

Atom   0B    basis set group =>   1
Atom   1B    basis set group =>   1
Atom   2B    basis set group =>   1
Atom   3B    basis set group =>   1
Atom   4B    basis set group =>   1
Atom   5B    basis set group =>   1
Atom   6B    basis set group =>   1
Atom   7B    basis set group =>   1
Atom   8B    basis set group =>   1
Atom   9B    basis set group =>   1
Atom  10B    basis set group =>   1
Atom  11B    basis set group =>   1
---------------------------------
AUXILIARY/J BASIS SET INFORMATION
---------------------------------
There are 1 groups of distinct atoms

 Group   1 Type B   : 12s5p4d2f1g contracted to 6s4p3d1f1g pattern {711111/2111/211/2/1}

Atom   0B    basis set group =>   1
Atom   1B    basis set group =>   1
Atom   2B    basis set group =>   1
Atom   3B    basis set group =>   1
Atom   4B    basis set group =>   1
Atom   5B    basis set group =>   1
Atom   6B    basis set group =>   1
Atom   7B    basis set group =>   1
Atom   8B    basis set group =>   1
Atom   9B    basis set group =>   1
Atom  10B    basis set group =>   1
Atom  11B    basis set group =>   1


           ************************************************************
           *        Program running with 8 parallel MPI-processes     *
           *              working on a common directory               *
           ************************************************************
------------------------------------------------------------------------------
                             ORCA STARTUP CALCULATIONS
                           -- RI-GTO INTEGRALS CHOSEN --
------------------------------------------------------------------------------
------------------------------------------------------------------------------
                   ___                                                        
                  /   \      - P O W E R E D   B Y -                         
                 /     \                                                     
                 |  |  |   _    _      __       _____    __    __             
                 |  |  |  | |  | |    /  \     |  _  \  |  |  /  |          
                  \  \/   | |  | |   /    \    | | | |  |  | /  /          
                 / \  \   | |__| |  /  /\  \   | |_| |  |  |/  /          
                |  |  |   |  __  | /  /__\  \  |    /   |      \           
                |  |  |   | |  | | |   __   |  |    \   |  |\   \          
                \     /   | |  | | |  |  |  |  | |\  \  |  | \   \       
                 \___/    |_|  |_| |__|  |__|  |_| \__\ |__|  \__/        
                                                                              
                      - O R C A' S   B I G   F R I E N D -                    
                                      &                                       
                       - I N T E G R A L  F E E D E R -                       
                                                                              
 v1 FN, 2020, v2 2021, v3 2022-2024                                           
------------------------------------------------------------------------------


----------------------
SHARK INTEGRAL PACKAGE
----------------------

Number of atoms                             ...     12
Number of basis functions                   ...    168
Number of shells                            ...     72
Maximum angular momentum                    ...      2
Integral batch strategy                     ... SHARK/LIBINT Hybrid
RI-J (if used) integral strategy            ... SPLIT-RIJ (Revised 2003 algorithm where possible)
Printlevel                                  ...      1
Contraction scheme used                     ... SEGMENTED contraction
Prescreening option                         ... SCHWARTZ
   Thresh                                   ... 2.500e-11
   Tcut                                     ... 2.500e-12
   Tpresel                                  ... 2.500e-12 
Coulomb Range Separation                    ... NOT USED
Exchange Range Separation                   ... NOT USED
Multipole approximations                    ... NOT USED
Finite Nucleus Model                        ... NOT USED
CABS basis                                  ... NOT available
Auxiliary Coulomb fitting basis             ... AVAILABLE
   # of basis functions in Aux-J            ...    588
   # of shells in Aux-J                     ...    180
   Maximum angular momentum in Aux-J        ...      4
Auxiliary J/K fitting basis                 ... NOT available
Auxiliary Correlation fitting basis         ... NOT available
Auxiliary 'external' fitting basis          ... NOT available

Checking pre-screening integrals            ... done (  0.0 sec) Dimension = 72
   => SHARK Basis and OBASIS are compatible. Storing Pre-screening
Shell pair information
Shell pair cut-off parameter TPreSel        ...   2.5e-12
Total number of shell pairs                 ...      2628
Shell pairs after pre-screening             ...      2206
Total number of primitive shell pairs       ...     10596
Primitive shell pairs kept                  ...      5937
          la=0 lb=0:    538 shell pairs
          la=1 lb=0:    754 shell pairs
          la=1 lb=1:    281 shell pairs
          la=2 lb=0:    326 shell pairs
          la=2 lb=1:    252 shell pairs
          la=2 lb=2:     55 shell pairs

Checking whether 4 symmetric matrices of dimension 168 fit in memory
:Max Core in MB      =   2500.00
 MB in use           =      6.24
 MB left             =   2493.76
 MB needed           =      0.43
 Data fit in memory  = YES
Calculating RI/J V-Matrix + Cholesky decomp.... done (  0.0 sec)
Calculating Nuclear repulsion               ... done (  0.0 sec) ENN=    211.282495308659 Eh

Diagonalization of the overlap matrix:
Smallest eigenvalue                        ... 2.904e-03
Time for diagonalization                   ...    0.004 sec
Threshold for overlap eigenvalues          ... 1.000e-07
Number of eigenvalues below threshold      ... 0
Time for construction of square roots      ...    0.004 sec
Total time needed                          ...    0.011 sec

-------------------
DFT GRID GENERATION
-------------------

General Integration Accuracy     IntAcc      ... 4.388
Radial Grid Type                 RadialGrid  ... OptM3 with GC (2021)
Angular Grid (max. ang.)         AngularGrid ... 4 (Lebedev-302)
Angular grid pruning method      GridPruning ... 4 (adaptive)
Weight generation scheme         WeightScheme... mBecke (2022)
Basis function cutoff            BFCut       ... 1.0000e-11
Integration weight cutoff        WCut        ... 1.0000e-14
Partially contracted basis set               ... off
Rotationally invariant grid construction     ... off
Angular grids for H and He will be reduced by one unit

Total number of grid points                  ...    72864
Total number of batches                      ...     1146
Average number of points per batch           ...       63
Average number of grid points per atom       ...     6072
Grids setup in   0.7 sec
Initializing property integral containers    ... done (  0.0 sec)

SHARK setup successfully completed in   0.9 seconds

Maximum memory used throughout the entire STARTUP-calculation: 19.4 MB


           ************************************************************
           *        Program running with 8 parallel MPI-processes     *
           *              working on a common directory               *
           ************************************************************
-------------------------------------------------------------------------------
                                 ORCA GUESS
                   Start orbitals & Density for SCF / CASSCF
-------------------------------------------------------------------------------

------------
SCF SETTINGS
------------
Hamiltonian:
 Density Functional     Method          .... DFT(GTOs)
 Exchange Functional    Exchange        .... B88
   X-Alpha parameter    XAlpha          ....  0.666667
   Becke's b parameter  XBeta           ....  0.004200
 Correlation Functional Correlation     .... P86
 LDA part of GGA corr.  LDAOpt          .... PW91-LDA
 Gradients option       PostSCFGGA      .... off
   NL short-range parameter             ....  4.400000
 RI-approximation to the Coulomb term is turned on
   Number of AuxJ basis functions       .... 588


General Settings:
 Integral files         IntName         .... double_ring_nn1.80
 Hartree-Fock type      HFTyp           .... RHF
 Total Charge           Charge          ....    0
 Multiplicity           Mult            ....    1
 Number of Electrons    NEL             ....   60
 Basis Dimension        Dim             ....  168
 Nuclear Repulsion      ENuc            ....    211.2824953087 Eh

Convergence Acceleration:
 AO-DIIS                CNVDIIS         .... on
   Start iteration      DIISMaxIt       ....     0
   Startup error        DIISStart       ....  0.200000
   # of expansion vecs  DIISMaxEq       ....     5
   Bias factor          DIISBfac        ....   1.050
   Max. coefficient     DIISMaxC        ....  10.000
 MO-DIIS                CNVKDIIS        .... off
 Trust-Rad. Augm. Hess. CNVTRAH         .... auto
   Auto Start mean grad. ratio tolernc. ....  1.125000
   Auto Start start iteration           ....    50
   Auto Start num. interpolation iter.  ....    10
   Max. Number of Micro iterations      ....    24
   Max. Number of Macro iterations      .... Maxiter - #DIIS iter
   Number of Davidson start vectors     ....     2
   Converg. threshold    (grad. norm)   ....   1.000e-05
   Grad. Scal. Fac. for Micro threshold ....   0.100
   Minimum threshold for Micro iter.    ....   1.000e-02
   NR start threshold (gradient norm)   ....   1.000e-04
   Initial trust radius                 ....   0.400
   Minimum AH scaling param. (alpha)    ....   1.000
   Maximum AH scaling param. (alpha)    .... 1000.000
   Quad. conv. algorithm                .... NR
   White noise on init. David. guess    .... on
   Maximum white noise                  ....   0.010
   Pseudo random numbers                .... off
   Inactive MOs                         .... canonical
   Orbital update algorithm             .... Taylor
   Preconditioner                       .... Diag
   Full preconditioner red. dimension   ....   250
 SOSCF                 CNVSOSCF           .... on
   Start iteration     SOSCFMaxIt         ....   150
   Startup grad/error  SOSCFStart         ....  0.001000
   Hessian update      SOSCFHessUp        .... L-BFGS
   Autom. constraints  SOSCFAutoConstrain .... off
 Level Shifting         CNVShift        .... on
   Level shift para.    LevelShift      ....    0.2500
   Turn off err/grad.   ShiftErr        ....    0.0000
 Zerner damping         CNVZerner       .... off
 Static damping         CNVDamp         .... on
   Fraction old density DampFac         ....    0.8500
   Max. Damping (<1)    DampMax         ....    0.9800
   Min. Damping (>=0)   DampMin         ....    0.0000
   Turn off err/grad.   DampErr         ....    0.0300

SCF Procedure:
 Maximum # iterations   MaxIter         ....   125
 SCF integral mode      SCFMode         .... Direct
   Integral package                     .... SHARK and LIBINT hybrid scheme
 Reset frequency        DirectResetFreq ....    20
 Integral Threshold     Thresh          ....  2.500e-11 Eh
 Primitive CutOff       TCut            ....  2.500e-12 Eh

Convergence Tolerance:
 Convergence Check Mode ConvCheckMode   .... Total+1el-Energy
 Convergence forced     ConvForced      .... 0
 Energy Change          TolE            ....  1.000e-08 Eh
 1-El. energy change                    ....  1.000e-05 Eh
 Orbital Gradient       TolG            ....  1.000e-05
 Orbital Rotation angle TolX            ....  1.000e-05
 DIIS Error             TolErr          ....  5.000e-07

------------------------------
INITIAL GUESS: MODEL POTENTIAL
------------------------------
Loading Hartree-Fock densities                     ... done
Calculating cut-offs                               ... done
Initializing the effective Hamiltonian             ... done
Setting up the integral package (SHARK)            ... done
Starting the Coulomb interaction                   ... done (   0.0 sec)
Making the grid                                    ... done (   0.1 sec)
Mapping shells                                     ... done
Starting the XC term evaluation                    ... done (   0.0 sec)
  promolecular density results
     # of electrons  =     60.000526304
     EX              =    -44.557782244
     EC              =     -1.750852704
     EX+EC           =    -46.308634948
Transforming the Hamiltonian                       ... done (   0.0 sec)
Diagonalizing the Hamiltonian                      ... done (   0.0 sec)
Back transforming the eigenvectors                 ... done (   0.0 sec)
Now organizing SCF variables                       ... done
                      ------------------
                      INITIAL GUESS DONE (   0.2 sec)
                      ------------------
             **** ENERGY FILE WAS UPDATED (double_ring_nn1.80.en.tmp) ****
Finished Guess after   0.7 sec
Maximum memory used throughout the entire GUESS-calculation: 9.0 MB


           ************************************************************
           *        Program running with 8 parallel MPI-processes     *
           *              working on a common directory               *
           ************************************************************

-------------------------------------------------------------------------------------------
                                      ORCA LEAN-SCF
                              memory conserving SCF solver
-------------------------------------------------------------------------------------------

----------------------------------------D-I-I-S--------------------------------------------
Iteration    Energy (Eh)           Delta-E    RMSDP     MaxDP     DIISErr   Damp  Time(sec)
-------------------------------------------------------------------------------------------
               ***  Starting incremental Fock matrix formation  ***
    1    -296.2115111953994528     0.00e+00  6.39e-03  6.69e-02  1.41e-01  0.850   0.2
Warning: op=0 Small HOMO/LUMO gap (  -0.009) - skipping pre-diagonalization
         Will do a full diagonalization
    2    -296.3531888381124304    -1.42e-01  6.86e-03  5.78e-02  8.22e-02  0.850   0.3
                               ***Turning on AO-DIIS***
    3    -296.3924965733471026    -3.93e-02  4.16e-03  2.93e-02  2.52e-02  0.850   0.3
    4    -296.3745031838437285     1.80e-02  1.87e-02  1.54e-01  2.65e-02  0.000   0.4
    5    -296.0066368772980923     3.68e-01  6.79e-03  3.11e-02  1.37e-01  0.000   0.3
    6    -296.2296872052207846    -2.23e-01  6.60e-04  4.09e-03  1.13e-01  0.850   0.4
    7    -296.2480508631840621    -1.84e-02  9.82e-04  6.26e-03  1.10e-01  0.850   0.2
    8    -296.2747091881883534    -2.67e-02  1.40e-03  8.97e-03  1.04e-01  0.850   0.3
    9    -296.3096721840156533    -3.50e-02  3.33e-03  3.03e-02  9.62e-02  0.850   0.3
   10    -296.3651020023579008    -5.54e-02  2.45e-03  1.71e-02  7.31e-02  0.850   0.2
   11    -296.4032185199665150    -3.81e-02  1.84e-03  1.28e-02  5.42e-02  0.850   0.2
   12    -296.4281300052493862    -2.49e-02  1.43e-03  1.05e-02  4.00e-02  0.850   0.3
   13    -296.4436064409284199    -1.55e-02  1.16e-03  8.45e-03  2.92e-02  0.850   0.3
   14    -296.4532415196203488    -9.64e-03  6.68e-03  4.54e-02  2.09e-02  0.000   0.3
   15    -296.4691443728376612    -1.59e-02  1.27e-03  1.32e-02  2.44e-02  0.000   0.3
   16    -296.4732386714523500    -4.09e-03  6.92e-04  4.18e-03  1.70e-02  0.000   0.2
   17    -296.4753183072849083    -2.08e-03  5.48e-04  3.60e-03  1.25e-02  0.000   0.2
   18    -296.4764723741985790    -1.15e-03  4.06e-04  2.70e-03  8.69e-03  0.000   0.2
   19    -296.4771471461655779    -6.75e-04  5.73e-04  5.62e-03  5.96e-03  0.000   0.2
   20    -296.4775054858947669    -3.58e-04  3.42e-04  2.82e-03  3.91e-03  0.000   0.2
               *** Restarting incremental Fock matrix formation ***
                             ****Resetting DIIS****
Warning: op=0 Small HOMO/LUMO gap (   0.009) - skipping pre-diagonalization
         Will do a full diagonalization
   21    -296.4777136011873608    -2.08e-04  1.21e-03  1.08e-02  1.79e-03  0.000   0.2
   22    -296.4765774868926655     1.14e-03  5.92e-04  5.56e-03  8.23e-03  0.000   0.2
   23    -296.4774455657512817    -8.68e-04  2.56e-04  1.59e-03  4.43e-03  0.000   0.2
   24    -296.4776687692202017    -2.23e-04  1.36e-04  8.68e-04  2.57e-03  0.000   0.2
   25    -296.4777394580887631    -7.07e-05  1.13e-04  7.62e-04  1.57e-03  0.000   0.2
                              *** Initializing SOSCF ***
---------------------------------------S-O-S-C-F--------------------------------------
Iteration    Energy (Eh)           Delta-E    RMSDP     MaxDP     MaxGrad    Time(sec)
--------------------------------------------------------------------------------------
   26    -296.4777705627595310    -3.11e-05  1.04e-04  7.16e-04  9.68e-04     0.5
               *** Restarting incremental Fock matrix formation ***
   27    -296.4777855150292112    -1.50e-05  1.66e-04  1.26e-03  2.92e-04     0.3
   28    -296.4777771174755117     8.40e-06  1.19e-04  1.02e-03  6.89e-04     0.3
   29    -296.4777883975698956    -1.13e-05  2.82e-05  1.41e-04  7.28e-05     0.4
   30    -296.4777885121418990    -1.15e-07  5.89e-05  2.95e-04  9.33e-05     0.4
   31    -296.4777886203112871    -1.08e-07  2.62e-05  2.15e-04  7.11e-05     0.3
   32    -296.4777887393993296    -1.19e-07  1.85e-05  1.26e-04  4.38e-05     0.3
   33    -296.4777887994633261    -6.01e-08  5.52e-06  2.19e-05  9.97e-06     0.2
   34    -296.4777888043635130    -4.90e-09  1.17e-06  7.28e-06  2.33e-06     0.2
                 **** Energy Check signals convergence ****

               *****************************************************
               *                     SUCCESS                       *
               *           SCF CONVERGED AFTER  34 CYCLES          *
               *****************************************************

             **** ENERGY FILE WAS UPDATED (double_ring_nn1.80.en.tmp) ****

----------------
TOTAL SCF ENERGY
----------------

Total Energy       :       -296.47778880433901 Eh           -8067.57078 eV

Components:
Nuclear Repulsion  :        211.28249530865901 Eh            5749.28899 eV
Electronic Energy  :       -507.76028411299802 Eh          -13816.85977 eV
One Electron Energy:       -811.04146204417145 Eh          -22069.56018 eV
Two Electron Energy:        303.28117793117343 Eh            8252.70041 eV

Virial components:
Potential Energy   :       -587.72941652800864 Eh          -15992.93049 eV
Kinetic Energy     :        291.25162772366969 Eh            7925.35971 eV
Virial Ratio       :          2.01794380042273

DFT components:
N(Alpha)           :       29.999995690906 electrons
N(Beta)            :       29.999995690906 electrons
N(Total)           :       59.999991381812 electrons
E(X)               :      -44.786774649584 Eh       
E(C)               :       -1.784791504189 Eh       
E(XC)              :      -46.571566153773 Eh       

---------------
SCF CONVERGENCE
---------------

  Last Energy change         ...    4.9002e-09  Tolerance :   1.0000e-08
  Last MAX-Density change    ...    7.2836e-06  Tolerance :   1.0000e-07
  Last RMS-Density change    ...    1.1713e-06  Tolerance :   5.0000e-09
  Last DIIS Error            ...    9.6826e-04  Tolerance :   5.0000e-07
  Last Orbital Gradient      ...    2.3306e-06  Tolerance :   1.0000e-05
  Last Orbital Rotation      ...    1.8503e-05  Tolerance :   1.0000e-05


----------------
ORBITAL ENERGIES
----------------

  NO   OCC          E(Eh)            E(eV) 
   0   2.0000      -6.653124      -181.0407 
   1   2.0000      -6.653122      -181.0407 
   2   2.0000      -6.653108      -181.0403 
   3   2.0000      -6.653102      -181.0401 
   4   2.0000      -6.651078      -180.9850 
   5   2.0000      -6.651055      -180.9844 
   6   2.0000      -6.651044      -180.9841 
   7   2.0000      -6.651020      -180.9835 
   8   2.0000      -6.647070      -180.8760 
   9   2.0000      -6.647068      -180.8759 
  10   2.0000      -6.613003      -179.9490 
  11   2.0000      -6.612954      -179.9476 
  12   2.0000      -0.468071       -12.7369 
  13   2.0000      -0.444487       -12.0951 
  14   2.0000      -0.432269       -11.7626 
  15   2.0000      -0.413326       -11.2472 
  16   2.0000      -0.410578       -11.1724 
  17   2.0000      -0.391417       -10.6510 
  18   2.0000      -0.359766        -9.7897 
  19   2.0000      -0.339034        -9.2256 
  20   2.0000      -0.325816        -8.8659 
  21   2.0000      -0.311748        -8.4831 
  22   2.0000      -0.272150        -7.4056 
  23   2.0000      -0.248995        -6.7755 
  24   2.0000      -0.226005        -6.1499 
  25   2.0000      -0.222880        -6.0649 
  26   2.0000      -0.216358        -5.8874 
  27   2.0000      -0.208804        -5.6818 
  28   2.0000      -0.194822        -5.3014 
  29   2.0000      -0.193706        -5.2710 
  30   0.0000      -0.185304        -5.0424 
  31   0.0000      -0.178064        -4.8454 
  32   0.0000      -0.168625        -4.5885 
  33   0.0000      -0.167550        -4.5593 
  34   0.0000      -0.165394        -4.5006 
  35   0.0000      -0.162896        -4.4326 
  36   0.0000      -0.159201        -4.3321 
  37   0.0000      -0.156763        -4.2658 
  38   0.0000      -0.149999        -4.0817 
  39   0.0000      -0.145209        -3.9513 
  40   0.0000      -0.139051        -3.7838 
*Only the first 10 virtual orbitals were printed.

                    ********************************
                    * MULLIKEN POPULATION ANALYSIS *
                    ********************************

-----------------------
MULLIKEN ATOMIC CHARGES
-----------------------
   0 B :   -0.099878
   1 B :    0.051699
   2 B :    0.000917
   3 B :   -0.005355
   4 B :    0.000917
   5 B :    0.051699
   6 B :   -0.005355
   7 B :    0.000917
   8 B :    0.051699
   9 B :   -0.099878
  10 B :    0.051699
  11 B :    0.000917
Sum of atomic charges:   -0.0000000

--------------------------------
MULLIKEN REDUCED ORBITAL CHARGES
--------------------------------
  0 B s       :     3.305427  s :     3.305427
      pz      :     0.470278  p :     1.780614
      px      :     0.742271
      py      :     0.568066
      dz2     :     0.001695  d :     0.013837
      dxz     :     0.001234
      dyz     :     0.000000
      dx2y2   :     0.006313
      dxy     :     0.004594

  1 B s       :     3.664526  s :     3.664526
      pz      :     0.280690  p :     1.275865
      px      :     0.519050
      py      :     0.476125
      dz2     :     0.001143  d :     0.007909
      dxz     :     0.000294
      dyz     :     0.000426
      dx2y2   :     0.004259
      dxy     :     0.001788

  2 B s       :     3.660698  s :     3.660698
      pz      :     0.320520  p :     1.330678
      px      :     0.567348
      py      :     0.442811
      dz2     :     0.001189  d :     0.007706
      dxz     :     0.000131
      dyz     :     0.000401
      dx2y2   :     0.003375
      dxy     :     0.002612

  3 B s       :     3.666080  s :     3.666080
      pz      :     0.323004  p :     1.331755
      px      :     0.423554
      py      :     0.585196
      dz2     :     0.001243  d :     0.007520
      dxz     :     0.000561
      dyz     :     0.000000
      dx2y2   :     0.001904
      dxy     :     0.003812

  4 B s       :     3.660699  s :     3.660699
      pz      :     0.320520  p :     1.330678
      px      :     0.567348
      py      :     0.442811
      dz2     :     0.001189  d :     0.007706
      dxz     :     0.000131
      dyz     :     0.000401
      dx2y2   :     0.003375
      dxy     :     0.002612

  5 B s       :     3.664526  s :     3.664526
      pz      :     0.280690  p :     1.275865
      px      :     0.519050
      py      :     0.476125
      dz2     :     0.001143  d :     0.007909
      dxz     :     0.000294
      dyz     :     0.000426
      dx2y2   :     0.004259
      dxy     :     0.001788

  6 B s       :     3.666080  s :     3.666080
      pz      :     0.323004  p :     1.331755
      px      :     0.423554
      py      :     0.585196
      dz2     :     0.001243  d :     0.007520
      dxz     :     0.000561
      dyz     :     0.000000
      dx2y2   :     0.001904
      dxy     :     0.003812

  7 B s       :     3.660699  s :     3.660699
      pz      :     0.320520  p :     1.330678
      px      :     0.567348
      py      :     0.442811
      dz2     :     0.001189  d :     0.007706
      dxz     :     0.000131
      dyz     :     0.000401
      dx2y2   :     0.003375
      dxy     :     0.002612

  8 B s       :     3.664526  s :     3.664526
      pz      :     0.280690  p :     1.275865
      px      :     0.519050
      py      :     0.476125
      dz2     :     0.001143  d :     0.007909
      dxz     :     0.000294
      dyz     :     0.000426
      dx2y2   :     0.004259
      dxy     :     0.001788

  9 B s       :     3.305427  s :     3.305427
      pz      :     0.470278  p :     1.780614
      px      :     0.742271
      py      :     0.568066
      dz2     :     0.001695  d :     0.013837
      dxz     :     0.001234
      dyz     :     0.000000
      dx2y2   :     0.006313
      dxy     :     0.004594

 10 B s       :     3.664526  s :     3.664526
      pz      :     0.280690  p :     1.275865
      px      :     0.519050
      py      :     0.476125
      dz2     :     0.001143  d :     0.007909
      dxz     :     0.000294
      dyz     :     0.000426
      dx2y2   :     0.004259
      dxy     :     0.001788

 11 B s       :     3.660699  s :     3.660699
      pz      :     0.320520  p :     1.330678
      px      :     0.567348
      py      :     0.442811
      dz2     :     0.001189  d :     0.007706
      dxz     :     0.000131
      dyz     :     0.000401
      dx2y2   :     0.003375
      dxy     :     0.002612



                     *******************************
                     * LOEWDIN POPULATION ANALYSIS *
                     *******************************

----------------------
LOEWDIN ATOMIC CHARGES
----------------------
   0 B :   -0.140014
   1 B :    0.058134
   2 B :    0.022116
   3 B :   -0.020486
   4 B :    0.022116
   5 B :    0.058134
   6 B :   -0.020486
   7 B :    0.022116
   8 B :    0.058134
   9 B :   -0.140014
  10 B :    0.058134
  11 B :    0.022116

-------------------------------
LOEWDIN REDUCED ORBITAL CHARGES
-------------------------------
  0 B s       :     3.060064  s :     3.060064
      pz      :     0.470132  p :     2.041848
      px      :     0.871829
      py      :     0.699887
      dz2     :     0.004702  d :     0.038102
      dxz     :     0.002151
      dyz     :     0.000000
      dx2y2   :     0.018986
      dxy     :     0.012262

  1 B s       :     3.448509  s :     3.448509
      pz      :     0.281098  p :     1.476308
      px      :     0.646014
      py      :     0.549195
      dz2     :     0.002873  d :     0.017050
      dxz     :     0.000388
      dyz     :     0.000554
      dx2y2   :     0.009561
      dxy     :     0.003674

  2 B s       :     3.441478  s :     3.441478
      pz      :     0.318531  p :     1.518726
      px      :     0.684634
      py      :     0.515562
      dz2     :     0.003101  d :     0.017680
      dxz     :     0.000162
      dyz     :     0.000504
      dx2y2   :     0.008292
      dxy     :     0.005621

  3 B s       :     3.455065  s :     3.455065
      pz      :     0.324534  p :     1.547938
      px      :     0.486816
      py      :     0.736588
      dz2     :     0.003233  d :     0.017483
      dxz     :     0.000709
      dyz     :     0.000000
      dx2y2   :     0.003748
      dxy     :     0.009794

  4 B s       :     3.441478  s :     3.441478
      pz      :     0.318531  p :     1.518726
      px      :     0.684634
      py      :     0.515562
      dz2     :     0.003101  d :     0.017680
      dxz     :     0.000162
      dyz     :     0.000504
      dx2y2   :     0.008292
      dxy     :     0.005621

  5 B s       :     3.448509  s :     3.448509
      pz      :     0.281098  p :     1.476308
      px      :     0.646014
      py      :     0.549195
      dz2     :     0.002873  d :     0.017050
      dxz     :     0.000388
      dyz     :     0.000554
      dx2y2   :     0.009561
      dxy     :     0.003674

  6 B s       :     3.455065  s :     3.455065
      pz      :     0.324534  p :     1.547938
      px      :     0.486816
      py      :     0.736588
      dz2     :     0.003233  d :     0.017483
      dxz     :     0.000709
      dyz     :    -0.000000
      dx2y2   :     0.003748
      dxy     :     0.009794

  7 B s       :     3.441478  s :     3.441478
      pz      :     0.318531  p :     1.518726
      px      :     0.684634
      py      :     0.515562
      dz2     :     0.003101  d :     0.017680
      dxz     :     0.000162
      dyz     :     0.000504
      dx2y2   :     0.008292
      dxy     :     0.005621

  8 B s       :     3.448509  s :     3.448509
      pz      :     0.281098  p :     1.476308
      px      :     0.646014
      py      :     0.549195
      dz2     :     0.002873  d :     0.017050
      dxz     :     0.000388
      dyz     :     0.000554
      dx2y2   :     0.009561
      dxy     :     0.003674

  9 B s       :     3.060064  s :     3.060064
      pz      :     0.470132  p :     2.041848
      px      :     0.871829
      py      :     0.699887
      dz2     :     0.004702  d :     0.038102
      dxz     :     0.002151
      dyz     :     0.000000
      dx2y2   :     0.018986
      dxy     :     0.012262

 10 B s       :     3.448509  s :     3.448509
      pz      :     0.281098  p :     1.476308
      px      :     0.646014
      py      :     0.549195
      dz2     :     0.002873  d :     0.017050
      dxz     :     0.000388
      dyz     :     0.000554
      dx2y2   :     0.009561
      dxy     :     0.003674

 11 B s       :     3.441478  s :     3.441478
      pz      :     0.318531  p :     1.518726
      px      :     0.684634
      py      :     0.515562
      dz2     :     0.003101  d :     0.017680
      dxz     :     0.000162
      dyz     :     0.000504
      dx2y2   :     0.008292
      dxy     :     0.005621



                      *****************************
                      * MAYER POPULATION ANALYSIS *
                      *****************************

  NA   - Mulliken gross atomic population
  ZA   - Total nuclear charge
  QA   - Mulliken gross atomic charge
  VA   - Mayer's total valence
  BVA  - Mayer's bonded valence
  FA   - Mayer's free valence

  ATOM       NA         ZA         QA         VA         BVA        FA
  0 B      5.0999     5.0000    -0.0999     3.3044     3.3044     0.0000
  1 B      4.9483     5.0000     0.0517     2.4147     2.4147    -0.0000
  2 B      4.9991     5.0000     0.0009     2.4989     2.4989    -0.0000
  3 B      5.0054     5.0000    -0.0054     2.4982     2.4982    -0.0000
  4 B      4.9991     5.0000     0.0009     2.4989     2.4989    -0.0000
  5 B      4.9483     5.0000     0.0517     2.4147     2.4147    -0.0000
  6 B      5.0054     5.0000    -0.0054     2.4982     2.4982    -0.0000
  7 B      4.9991     5.0000     0.0009     2.4989     2.4989    -0.0000
  8 B      4.9483     5.0000     0.0517     2.4147     2.4147    -0.0000
  9 B      5.0999     5.0000    -0.0999     3.3044     3.3044     0.0000
 10 B      4.9483     5.0000     0.0517     2.4147     2.4147    -0.0000
 11 B      4.9991     5.0000     0.0009     2.4989     2.4989    -0.0000

  Mayer bond orders larger than 0.100000
B(  0-B ,  1-B ) :   0.7929 B(  0-B ,  2-B ) :   0.1617 B(  0-B ,  3-B ) :   0.1303 
B(  0-B ,  4-B ) :   0.1617 B(  0-B ,  5-B ) :   0.7929 B(  0-B ,  9-B ) :   1.0160 
B(  1-B ,  2-B ) :   0.7196 B(  1-B ,  3-B ) :   0.2967 B(  1-B ,  4-B ) :   0.1506 
B(  1-B ,  5-B ) :   0.3041 B(  2-B ,  3-B ) :   0.7629 B(  2-B ,  4-B ) :   0.3142 
B(  2-B ,  5-B ) :   0.1506 B(  2-B ,  7-B ) :   0.1118 B(  2-B , 11-B ) :   0.1152 
B(  3-B ,  4-B ) :   0.7629 B(  3-B ,  5-B ) :   0.2967 B(  4-B ,  5-B ) :   0.7196 
B(  4-B ,  7-B ) :   0.1152 B(  4-B , 11-B ) :   0.1118 B(  6-B ,  7-B ) :   0.7629 
B(  6-B ,  8-B ) :   0.2967 B(  6-B ,  9-B ) :   0.1303 B(  6-B , 10-B ) :   0.2967 
B(  6-B , 11-B ) :   0.7629 B(  7-B ,  8-B ) :   0.7196 B(  7-B ,  9-B ) :   0.1617 
B(  7-B , 10-B ) :   0.1506 B(  7-B , 11-B ) :   0.3142 B(  8-B ,  9-B ) :   0.7929 
B(  8-B , 10-B ) :   0.3041 B(  8-B , 11-B ) :   0.1506 B(  9-B , 10-B ) :   0.7929 
B(  9-B , 11-B ) :   0.1617 B( 10-B , 11-B ) :   0.7196 

-------
TIMINGS
-------

Total SCF time: 0 days 0 hours 0 min 10 sec 

Total time                  ....      10.042 sec
Sum of individual times     ....       9.709 sec  ( 96.7%)

SCF preparation             ....       0.445 sec  (  4.4%)
Fock matrix formation       ....       7.373 sec  ( 73.4%)
  Startup                   ....       0.036 sec  (  0.5% of F)
  Split-RI-J                ....       2.491 sec  ( 33.8% of F)
  XC integration            ....       4.430 sec  ( 60.1% of F)
    XC Preparation          ....       0.000 sec  (  0.0% of XC)
    Basis function eval.    ....       1.115 sec  ( 25.2% of XC)
    Density eval.           ....       0.564 sec  ( 12.7% of XC)
    XC-Functional eval.     ....       0.204 sec  (  4.6% of XC)
    XC-Potential eval.      ....       0.628 sec  ( 14.2% of XC)
Diagonalization             ....       0.000 sec  (  0.0%)
Density matrix formation    ....       0.229 sec  (  2.3%)
Total Energy calculation    ....       0.109 sec  (  1.1%)
Population analysis         ....       0.033 sec  (  0.3%)
Orbital Transformation      ....       0.036 sec  (  0.4%)
Orbital Orthonormalization  ....       0.000 sec  (  0.0%)
DIIS solution               ....       1.096 sec  ( 10.9%)
SOSCF solution              ....       0.388 sec  (  3.9%)
Finished LeanSCF after  10.1 sec

Maximum memory used throughout the entire LEANSCF-calculation: 8.9 MB


-------------------------------------------------------------------------------
                          DFT DISPERSION CORRECTION                            
                                                                               
                              DFTD3 V3.1  Rev 1                                
                          USING Becke-Johnson damping                          
-------------------------------------------------------------------------------
The BP86 functional is recognized
Active option DFTDOPT                   ...         4   

molecular C6(AA) [au] = 13124.069972 


            DFT-D V3
 parameters
 s6 scaling factor         :     1.0000 
 a1 scaling factor         :     0.3946 
 s8 scaling factor         :     3.2822 
 a2 scaling factor         :     4.8516 
 ad hoc parameters k1-k3   :    16.0000     1.3333    -4.0000 

 Edisp/kcal,au: -29.941301056858  -0.047714495319 
 E6   /kcal   :  -8.889396854 
 E8   /kcal   : -21.051904203 
 % E8         :  70.310585913 

-------------------------   ----------------
Dispersion correction           -0.047714495
-------------------------   ----------------


-------------------------   --------------------
FINAL SINGLE POINT ENERGY      -296.525503299658
-------------------------   --------------------



           ************************************************************
           *        Program running with 8 parallel MPI-processes     *
           *              working on a common directory               *
           ************************************************************
------------------------------------------------------------------------------
                         ORCA SCF GRADIENT CALCULATION
------------------------------------------------------------------------------

Nuc. rep. gradient        (SHARK) ... done (  0.0 sec)
HCore & Overlap gradient  (SHARK) ... done (  0.0 sec)
Split-RIJ-J gradient      (SHARK) ... done (  0.3 sec)
XC gradient                       ... done (  0.6 sec)
Dispersion correction             ... done (  0.0 sec)

-------------------
DISPERSION GRADIENT
-------------------

   1   B   :   -0.000287395   -0.000000000    0.000000000
   2   B   :   -0.001445823   -0.000923086    0.000000000
   3   B   :    0.000703241   -0.000756535    0.000000000
   4   B   :    0.000871836   -0.000000000    0.000000000
   5   B   :    0.000703241    0.000756535    0.000000000
   6   B   :   -0.001445823    0.000923086    0.000000000
   7   B   :   -0.000871836   -0.000000000    0.000000000
   8   B   :   -0.000703241   -0.000756535    0.000000000
   9   B   :    0.001445823   -0.000923086    0.000000000
  10   B   :    0.000287395   -0.000000000    0.000000000
  11   B   :    0.001445823    0.000923086    0.000000000
  12   B   :   -0.000703241    0.000756535    0.000000000

Difference to translation invariance:
           :   -0.0000000000   -0.0000000000    0.0000000000

Difference to rotation invariance:
           :    0.0000000000    0.0000000000    0.0000000000

Norm of the Dispersion gradient    ...    0.0042098612
RMS gradient                       ...    0.0007016435
MAX gradient                       ...    0.0014458228

------------------
CARTESIAN GRADIENT
------------------

   1   B   :    0.015408366   -0.000000002    0.000000000
   2   B   :    0.023042854    0.051730641   -0.000000001
   3   B   :   -0.022805097    0.046808123    0.000000001
   4   B   :   -0.051049343   -0.000000000   -0.000000000
   5   B   :   -0.022805097   -0.046808124    0.000000000
   6   B   :    0.023042848   -0.051730641   -0.000000000
   7   B   :    0.051049338   -0.000000000    0.000000000
   8   B   :    0.022805096    0.046808124    0.000000000
   9   B   :   -0.023042848    0.051730642   -0.000000001
  10   B   :   -0.015408364   -0.000000000    0.000000001
  11   B   :   -0.023042844   -0.051730644   -0.000000000
  12   B   :    0.022805092   -0.046808120   -0.000000000

Difference to translation invariance:
           :   -0.0000000000    0.0000000000   -0.0000000000

Difference to rotation invariance:
           :   -0.0000000016    0.0000000004    0.0000000063

Norm of the Cartesian gradient     ...    0.1713456318
RMS gradient                       ...    0.0285576053
MAX gradient                       ...    0.0517306439

-------
TIMINGS
-------

Total SCF gradient time     ....        0.978 sec

Densities                   ....       0.001 sec  (  0.1%)
One electron gradient       ....       0.041 sec  (  4.2%)
RI-J Coulomb gradient       ....       0.311 sec  ( 31.9%)
XC gradient                 ....       0.575 sec  ( 58.9%)

Maximum memory used throughout the entire SCFGRAD-calculation: 29.0 MB
------------------------------------------------------------------------------
                         ORCA GEOMETRY RELAXATION STEP
------------------------------------------------------------------------------

Reading the OPT-File                    .... done
Getting information on internals        .... done
Copying old internal coords+grads       .... done
Making the new internal coordinates     .... (2022 redundants) done
Validating the new internal coordinates .... (2022 redundants) done
Calculating the B-matrix                .... done
Calculating the G,G- and P matrices     .... done
Transforming gradient to internals      .... done
Projecting the internal gradient        .... done
Number of atoms                         ....  12
Number of internal coordinates          ....  49
Current Energy                          ....  -296.525503300 Eh
Current gradient norm                   ....     0.171345632 Eh/bohr
Maximum allowed component of the step   ....  0.300
Current trust radius                    ....  0.300
Evaluating the initial hessian          ....  (Almloef) done
Projecting the Hessian                  .... done
Forming the augmented Hessian           .... done
Diagonalizing the augmented Hessian     .... done
Last element of RFO vector              ....  0.741753947
Lowest eigenvalues of augmented Hessian:
 -0.169533909  0.010000000  0.010000000  0.010000000  0.010000000
Length of the computed step             ....  0.904170601
Warning: the length of the step is outside the trust region - taking restricted step instead
The input lambda is                     ....     0.009000
   iter:   5  x=   -0.161678  g=   28.704307 f(x)=     1.834216
   iter:  10  x=   -0.585525  g=    0.324909 f(x)=     0.007640
The output lambda is                    ....    -0.587004 (14 iterations)
The final length of the internal step   ....  0.300000000
Converting the step to Cartesian space:
 Initial RMS(Int)=    0.0428571429
Transforming coordinates:
 Iter   0:  RMS(Cart)=    0.0723306793 RMS(Int)=    1.5552755570
done
Storing new coordinates                 .... done

                                .--------------------.
          ----------------------|Geometry convergence|-------------------------
          Item                value                   Tolerance       Converged
          ---------------------------------------------------------------------
          RMS gradient        0.0268908943            0.0001000000      NO
          MAX gradient        0.0568357586            0.0003000000      NO
          RMS step            0.0428571429            0.0020000000      NO
          MAX step            0.0912720141            0.0040000000      NO
          -------------------------------------------------------------------------
          ........................................................
          Max(Bonds)      0.0483      Max(Angles)    0.52
          Max(Dihed)        0.00      Max(Improp)    0.00
          ---------------------------------------------------------------------

The optimization has not yet converged - more geometry cycles are needed


    ---------------------------------------------------------------------------
                         Redundant Internal Coordinates
                            (Angstroem and degrees)

        Definition                    Value    dE/dq     Step     New-Value
    ----------------------------------------------------------------------------
     1. B(B   1,B   0)                2.2500  0.056836 -0.0483    2.2017   
     2. B(B   2,B   1)                2.2500  0.048330 -0.0411    2.2089   
     3. B(B   3,B   2)                2.2500  0.053907 -0.0458    2.2042   
     4. B(B   4,B   3)                2.2500  0.053907 -0.0458    2.2042   
     5. B(B   5,B   4)                2.2500  0.048330 -0.0411    2.2089   
     6. B(B   5,B   0)                2.2500  0.056836 -0.0483    2.2017   
     7. B(B   7,B   6)                2.2500  0.053907 -0.0458    2.2042   
     8. B(B   8,B   7)                2.2500  0.048330 -0.0411    2.2089   
     9. B(B   9,B   8)                2.2500  0.056836 -0.0483    2.2017   
    10. B(B   9,B   0)                1.8000  0.035165 -0.0241    1.7759   
    11. B(B  10,B   9)                2.2500  0.056836 -0.0483    2.2017   
    12. B(B  11,B  10)                2.2500  0.048330 -0.0411    2.2089   
    13. B(B  11,B   6)                2.2500  0.053907 -0.0458    2.2042   
    14. A(B   1,B   0,B   9)          120.00 -0.003582    0.26    120.26   
    15. A(B   5,B   0,B   9)          120.00 -0.003582    0.26    120.26   
    16. A(B   1,B   0,B   5)          120.00  0.007164   -0.52    119.48   
    17. A(B   0,B   1,B   2)          120.00 -0.004626    0.34    120.34   
    18. A(B   1,B   2,B   3)          120.00 -0.001642    0.12    120.12   
    19. A(B   2,B   3,B   4)          120.00  0.005373   -0.40    119.60   
    20. A(B   3,B   4,B   5)          120.00 -0.001642    0.12    120.12   
    21. A(B   0,B   5,B   4)          120.00 -0.004626    0.34    120.34   
    22. A(B   7,B   6,B  11)          120.00  0.005373   -0.40    119.60   
    23. A(B   6,B   7,B   8)          120.00 -0.001642    0.12    120.12   
    24. A(B   7,B   8,B   9)          120.00 -0.004626    0.34    120.34   
    25. A(B   8,B   9,B  10)          120.00  0.007164   -0.52    119.48   
    26. A(B   0,B   9,B  10)          120.00 -0.003582    0.26    120.26   
    27. A(B   0,B   9,B   8)          120.00 -0.003582    0.26    120.26   
    28. A(B   9,B  10,B  11)          120.00 -0.004626    0.34    120.34   
    29. A(B   6,B  11,B  10)          120.00 -0.001642    0.12    120.12   
    30. D(B   2,B   1,B   0,B   5)      0.00  0.000000   -0.00     -0.00   
    31. D(B   2,B   1,B   0,B   9)    180.00  0.000000   -0.00    180.00   
    32. D(B   3,B   2,B   1,B   0)      0.00 -0.000000    0.00      0.00   
    33. D(B   4,B   3,B   2,B   1)      0.00  0.000000   -0.00     -0.00   
    34. D(B   5,B   4,B   3,B   2)      0.00 -0.000000    0.00      0.00   
    35. D(B   4,B   5,B   0,B   1)      0.00 -0.000000    0.00      0.00   
    36. D(B   4,B   5,B   0,B   9)    180.00 -0.000000    0.00    180.00   
    37. D(B   0,B   5,B   4,B   3)      0.00  0.000000   -0.00     -0.00   
    38. D(B   8,B   7,B   6,B  11)      0.00  0.000000   -0.00     -0.00   
    39. D(B   9,B   8,B   7,B   6)      0.00  0.000000   -0.00     -0.00   
    40. D(B  10,B   9,B   0,B   5)      0.00  0.000000   -0.00     -0.00   
    41. D(B  10,B   9,B   0,B   1)    180.00  0.000000   -0.00    180.00   
    42. D(B   8,B   9,B   0,B   5)    180.00 -0.000000    0.00    180.00   
    43. D(B   0,B   9,B   8,B   7)    180.00 -0.000000    0.00    180.00   
    44. D(B   8,B   9,B   0,B   1)      0.00 -0.000000    0.00      0.00   
    45. D(B  10,B   9,B   8,B   7)      0.00 -0.000000    0.00      0.00   
    46. D(B  11,B  10,B   9,B   8)      0.00  0.000000   -0.00     -0.00   
    47. D(B  11,B  10,B   9,B   0)    180.00  0.000000   -0.00    180.00   
    48. D(B   6,B  11,B  10,B   9)      0.00  0.000000   -0.00     -0.00   
    49. D(B  10,B  11,B   6,B   7)      0.00 -0.000000    0.00      0.00   
    ----------------------------------------------------------------------------

Geometry step timings:
Preparation and reading OPT file:      0.000 s ( 0.247 %)
Internal coordinates            :      0.000 s ( 0.200 %)
B/P matrices and projection     :      0.001 s ( 3.301 %)
Hessian update/contruction      :      0.000 s ( 1.997 %)
Making the step                 :      0.001 s ( 4.981 %)
Converting the step to Cartesian:      0.000 s ( 0.441 %)
Storing new data                :      0.000 s ( 0.417 %)
Checking convergence            :      0.000 s ( 0.347 %)
Final printing                  :      0.015 s (88.040 %)
Total time                      :      0.017 s

Time for energy+gradient        :     14.425 s
Time for complete geometry iter :     15.124 s

         *************************************************************
         *                GEOMETRY OPTIMIZATION CYCLE   2            *
         *************************************************************
---------------------------------
CARTESIAN COORDINATES (ANGSTROEM)
---------------------------------
  B     -0.887962    0.000000    0.000000
  B     -1.997416    1.901737    0.000000
  B     -4.206336    1.904976   -0.000000
  B     -5.315134   -0.000000   -0.000000
  B     -4.206336   -1.904976   -0.000000
  B     -1.997416   -1.901737    0.000000
  B      5.315134   -0.000000   -0.000000
  B      4.206336    1.904976   -0.000000
  B      1.997416    1.901737    0.000000
  B      0.887962    0.000000    0.000000
  B      1.997416   -1.901737    0.000000
  B      4.206336   -1.904976   -0.000000

----------------------------
CARTESIAN COORDINATES (A.U.)
----------------------------
  NO LB      ZA    FRAG     MASS         X           Y           Z
   0 B     5.0000    0    10.810   -1.678004    0.000000    0.000000
   1 B     5.0000    0    10.810   -3.774570    3.593762    0.000000
   2 B     5.0000    0    10.810   -7.948823    3.599883   -0.000000
   3 B     5.0000    0    10.810  -10.044148   -0.000000   -0.000000
   4 B     5.0000    0    10.810   -7.948823   -3.599884   -0.000000
   5 B     5.0000    0    10.810   -3.774570   -3.593762    0.000000
   6 B     5.0000    0    10.810   10.044148   -0.000000   -0.000000
   7 B     5.0000    0    10.810    7.948823    3.599883   -0.000000
   8 B     5.0000    0    10.810    3.774570    3.593762    0.000000
   9 B     5.0000    0    10.810    1.678004    0.000000    0.000000
  10 B     5.0000    0    10.810    3.774570   -3.593762    0.000000
  11 B     5.0000    0    10.810    7.948823   -3.599884   -0.000000

--------------------------------
INTERNAL COORDINATES (ANGSTROEM)
--------------------------------
 B      0   0   0     0.000000000000     0.00000000     0.00000000
 B      1   0   0     2.201702277051     0.00000000     0.00000000
 B      2   1   0     2.208921664476   120.34290346     0.00000000
 B      3   2   1     2.204170798741   120.11767621     0.00000000
 B      4   3   2     2.204170799061   119.59659114     0.00000000
 B      1   2   3     2.201702274594   119.48224950     0.00000000
 B      1   2   3     6.203095862004   120.25887653   180.00000000
 B      7   1   2     2.204170801195    59.79829544     0.00000000
 B      8   7   1     2.208921668600   120.11767668     0.00000000
 B      1   2   3     1.775923101324   120.25887601   179.99999915
 B     10   1   2     2.201702275067   120.25887477   180.00000000
 B      7   1   2     2.204170800636    59.79829534   180.00000000

---------------------------
INTERNAL COORDINATES (A.U.)
---------------------------
 B      0   0   0     0.000000000000     0.00000000     0.00000000
 B      1   0   0     4.160614332057     0.00000000     0.00000000
 B      2   1   0     4.174256997146   120.34290346     0.00000000
 B      3   2   1     4.165279162008   120.11767621     0.00000000
 B      4   3   2     4.165279162611   119.59659114     0.00000000
 B      1   2   3     4.160614327413   119.48224950     0.00000000
 B      1   2   3    11.722152361648   120.25887653   180.00000000
 B      7   1   2     4.165279166644    59.79829544     0.00000000
 B      8   7   1     4.174257004938   120.11767668     0.00000000
 B      1   2   3     3.356008296407   120.25887601   179.99999915
 B     10   1   2     4.160614328308   120.25887477   180.00000000
 B      7   1   2     4.165279165588    59.79829534   180.00000000



           ************************************************************
           *        Program running with 8 parallel MPI-processes     *
           *              working on a common directory               *
           ************************************************************
------------------------------------------------------------------------------
                   ___                                                        
                  /   \      - P O W E R E D   B Y -                         
                 /     \                                                     
                 |  |  |   _    _      __       _____    __    __             
                 |  |  |  | |  | |    /  \     |  _  \  |  |  /  |          
                  \  \/   | |  | |   /    \    | | | |  |  | /  /          
                 / \  \   | |__| |  /  /\  \   | |_| |  |  |/  /          
                |  |  |   |  __  | /  /__\  \  |    /   |      \           
                |  |  |   | |  | | |   __   |  |    \   |  |\   \          
                \     /   | |  | | |  |  |  |  | |\  \  |  | \   \       
                 \___/    |_|  |_| |__|  |__|  |_| \__\ |__|  \__/        
                                                                              
                      - O R C A' S   B I G   F R I E N D -                    
                                      &                                       
                       - I N T E G R A L  F E E D E R -                       
                                                                              
 v1 FN, 2020, v2 2021, v3 2022-2024                                           
------------------------------------------------------------------------------


----------------------
SHARK INTEGRAL PACKAGE
----------------------

Number of atoms                             ...     12
Number of basis functions                   ...    168
Number of shells                            ...     72
Maximum angular momentum                    ...      2
Integral batch strategy                     ... SHARK/LIBINT Hybrid
RI-J (if used) integral strategy            ... SPLIT-RIJ (Revised 2003 algorithm where possible)
Printlevel                                  ...      1
Contraction scheme used                     ... SEGMENTED contraction
Prescreening option                         ... SCHWARTZ
   Thresh                                   ... 2.500e-11
   Tcut                                     ... 2.500e-12
   Tpresel                                  ... 2.500e-12 
Coulomb Range Separation                    ... NOT USED
Exchange Range Separation                   ... NOT USED
Multipole approximations                    ... NOT USED
Finite Nucleus Model                        ... NOT USED
CABS basis                                  ... NOT available
Auxiliary Coulomb fitting basis             ... AVAILABLE
   # of basis functions in Aux-J            ...    588
   # of shells in Aux-J                     ...    180
   Maximum angular momentum in Aux-J        ...      4
Auxiliary J/K fitting basis                 ... NOT available
Auxiliary Correlation fitting basis         ... NOT available
Auxiliary 'external' fitting basis          ... NOT available

Checking pre-screening integrals            ... done (  0.0 sec) Dimension = 72
   => SHARK Basis and OBASIS are compatible. Storing Pre-screening
Shell pair information
Shell pair cut-off parameter TPreSel        ...   2.5e-12
Total number of shell pairs                 ...      2628
Shell pairs after pre-screening             ...      2240
Total number of primitive shell pairs       ...     10596
Primitive shell pairs kept                  ...      6023
          la=0 lb=0:    548 shell pairs
          la=1 lb=0:    766 shell pairs
          la=1 lb=1:    281 shell pairs
          la=2 lb=0:    338 shell pairs
          la=2 lb=1:    252 shell pairs
          la=2 lb=2:     55 shell pairs

Checking whether 4 symmetric matrices of dimension 168 fit in memory
:Max Core in MB      =   2500.00
 MB in use           =      6.50
 MB left             =   2493.50
 MB needed           =      0.43
 Data fit in memory  = YES
Calculating RI/J V-Matrix + Cholesky decomp.... done (  0.0 sec)
Calculating Nuclear repulsion               ... done (  0.0 sec) ENN=    215.254157346385 Eh

Diagonalization of the overlap matrix:
Smallest eigenvalue                        ... 2.529e-03
Time for diagonalization                   ...    0.004 sec
Threshold for overlap eigenvalues          ... 1.000e-07
Number of eigenvalues below threshold      ... 0
Time for construction of square roots      ...    0.002 sec
Total time needed                          ...    0.007 sec

-------------------
DFT GRID GENERATION
-------------------

General Integration Accuracy     IntAcc      ... 4.388
Radial Grid Type                 RadialGrid  ... OptM3 with GC (2021)
Angular Grid (max. ang.)         AngularGrid ... 4 (Lebedev-302)
Angular grid pruning method      GridPruning ... 4 (adaptive)
Weight generation scheme         WeightScheme... mBecke (2022)
Basis function cutoff            BFCut       ... 1.0000e-11
[...]
      pz      :     0.508314  p :     1.891871
      px      :     0.436017
      py      :     0.947540
      dz2     :     0.003004  d :     0.032420
      dxz     :     0.007579
      dyz     :     0.000000
      dx2y2   :     0.009473
      dxy     :     0.012364

  7 B s       :     3.092629  s :     3.092629
      pz      :     0.511679  p :     1.733243
      px      :     0.723509
      py      :     0.498056
      dz2     :     0.002685  d :     0.032732
      dxz     :     0.002766
      dyz     :     0.006625
      dx2y2   :     0.011045
      dxy     :     0.009611

  8 B s       :     3.278548  s :     3.278548
      pz      :     0.438359  p :     1.667450
      px      :     0.755262
      py      :     0.473829
      dz2     :     0.002823  d :     0.035771
      dxz     :     0.004891
      dyz     :     0.005545
      dx2y2   :     0.010655
      dxy     :     0.011857

  9 B s       :     3.367184  s :     3.367184
      pz      :     0.540550  p :     1.586200
      px      :     0.311560
      py      :     0.734090
      dz2     :     0.002603  d :     0.030522
      dxz     :     0.003955
      dyz     :     0.000000
      dx2y2   :     0.006807
      dxy     :     0.017157

 10 B s       :     3.278463  s :     3.278463
      pz      :     0.438173  p :     1.667620
      px      :     0.755707
      py      :     0.473740
      dz2     :     0.002822  d :     0.035751
      dxz     :     0.004890
      dyz     :     0.005542
      dx2y2   :     0.010639
      dxy     :     0.011858

 11 B s       :     3.092529  s :     3.092529
      pz      :     0.511821  p :     1.733225
      px      :     0.723303
      py      :     0.498102
      dz2     :     0.002684  d :     0.032724
      dxz     :     0.002764
      dyz     :     0.006623
      dx2y2   :     0.011035
      dxy     :     0.009618



                     *******************************
                     * LOEWDIN POPULATION ANALYSIS *
                     *******************************

----------------------
LOEWDIN ATOMIC CHARGES
----------------------
   0 B :   -0.228184
   1 B :    0.127579
   2 B :   -0.004543
   3 B :   -0.017884
   4 B :   -0.003838
   5 B :    0.126952
   6 B :   -0.017945
   7 B :   -0.004133
   8 B :    0.127124
   9 B :   -0.228297
  10 B :    0.127373
  11 B :   -0.004204

-------------------------------
LOEWDIN REDUCED ORBITAL CHARGES
-------------------------------
  0 B s       :     2.726627  s :     2.726627
      pz      :     0.554063  p :     2.403818
      px      :     0.934680
      py      :     0.915076
      dz2     :     0.010525  d :     0.097738
      dxz     :     0.008873
      dyz     :     0.000000
      dx2y2   :     0.020065
      dxy     :     0.058274

  1 B s       :     2.843574  s :     2.843574
      pz      :     0.421509  p :     1.942447
      px      :     0.971793
      py      :     0.549145
      dz2     :     0.010057  d :     0.086400
      dxz     :     0.010927
      dyz     :     0.007274
      dx2y2   :     0.029964
      dxy     :     0.028177

  2 B s       :     2.819851  s :     2.819851
      pz      :     0.498341  p :     2.099030
      px      :     0.979944
      py      :     0.620745
      dz2     :     0.010636  d :     0.085662
      dxz     :     0.007017
      dyz     :     0.009367
      dx2y2   :     0.034646
      dxy     :     0.023996

  3 B s       :     2.867374  s :     2.867374
      pz      :     0.514339  p :     2.071080
      px      :     0.531929
      py      :     1.024812
      dz2     :     0.009165  d :     0.079430
      dxz     :     0.014063
      dyz     :     0.000000
      dx2y2   :     0.020336
      dxy     :     0.035867

  4 B s       :     2.820063  s :     2.820063
      pz      :     0.497793  p :     2.098188
      px      :     0.979709
      py      :     0.620685
      dz2     :     0.010625  d :     0.085587
      dxz     :     0.007027
      dyz     :     0.009364
      dx2y2   :     0.034607
      dxy     :     0.023964

  5 B s       :     2.843323  s :     2.843323
      pz      :     0.421766  p :     1.943260
      px      :     0.972249
      py      :     0.549245
      dz2     :     0.010065  d :     0.086465
      dxz     :     0.010917
      dyz     :     0.007284
      dx2y2   :     0.030032
      dxy     :     0.028168

  6 B s       :     2.867445  s :     2.867445
      pz      :     0.514339  p :     2.071081
      px      :     0.531976
      py      :     1.024766
      dz2     :     0.009164  d :     0.079419
      dxz     :     0.014059
      dyz     :     0.000000
      dx2y2   :     0.020331
      dxy     :     0.035865

  7 B s       :     2.820029  s :     2.820029
      pz      :     0.497996  p :     2.098495
      px      :     0.979881
      py      :     0.620618
      dz2     :     0.010628  d :     0.085609
      dxz     :     0.007024
      dyz     :     0.009365
      dx2y2   :     0.034624
      dxy     :     0.023969

  8 B s       :     2.843339  s :     2.843339
      pz      :     0.421778  p :     1.943072
      px      :     0.971889
      py      :     0.549404
      dz2     :     0.010064  d :     0.086465
      dxz     :     0.010922
      dyz     :     0.007286
      dx2y2   :     0.030024
      dxy     :     0.028169

  9 B s       :     2.726586  s :     2.726586
      pz      :     0.554126  p :     2.403962
      px      :     0.934695
      py      :     0.915140
      dz2     :     0.010528  d :     0.097749
      dxz     :     0.008876
      dyz     :     0.000000
      dx2y2   :     0.020070
      dxy     :     0.058275

 10 B s       :     2.843514  s :     2.843514
      pz      :     0.421597  p :     1.942704
      px      :     0.972030
      py      :     0.549077
      dz2     :     0.010059  d :     0.086409
      dxz     :     0.010919
      dyz     :     0.007279
      dx2y2   :     0.029980
      dxy     :     0.028172

 11 B s       :     2.819991  s :     2.819991
      pz      :     0.498131  p :     2.098613
      px      :     0.979684
      py      :     0.620799
      dz2     :     0.010629  d :     0.085600
      dxz     :     0.007016
      dyz     :     0.009363
      dx2y2   :     0.034613
      dxy     :     0.023979



                      *****************************
                      * MAYER POPULATION ANALYSIS *
                      *****************************

  NA   - Mulliken gross atomic population
  ZA   - Total nuclear charge
  QA   - Mulliken gross atomic charge
  VA   - Mayer's total valence
  BVA  - Mayer's bonded valence
  FA   - Mayer's free valence

  ATOM       NA         ZA         QA         VA         BVA        FA
  0 B      4.9841     5.0000     0.0159     2.8555     2.8555     0.0000
  1 B      4.9814     5.0000     0.0186     3.0208     3.0208     0.0000
  2 B      4.8584     5.0000     0.1416     3.2002     3.2002     0.0000
  3 B      5.3355     5.0000    -0.3355     3.2208     3.2208     0.0000
  4 B      4.8585     5.0000     0.1415     3.1993     3.1993     0.0000
  5 B      4.9821     5.0000     0.0179     3.0210     3.0210     0.0000
  6 B      5.3354     5.0000    -0.3354     3.2210     3.2210     0.0000
  7 B      4.8586     5.0000     0.1414     3.1995     3.1995     0.0000
  8 B      4.9818     5.0000     0.0182     3.0208     3.0208     0.0000
  9 B      4.9839     5.0000     0.0161     2.8553     2.8553     0.0000
 10 B      4.9818     5.0000     0.0182     3.0211     3.0211     0.0000
 11 B      4.8585     5.0000     0.1415     3.2000     3.2000     0.0000

  Mayer bond orders larger than 0.100000
B(  0-B ,  1-B ) :   1.0016 B(  0-B ,  5-B ) :   1.0037 B(  0-B ,  6-B ) :   0.1003 
B(  0-B ,  9-B ) :   0.5720 B(  1-B ,  2-B ) :   1.0442 B(  1-B ,  3-B ) :   0.1298 
B(  1-B ,  4-B ) :   0.1648 B(  1-B ,  5-B ) :   0.5949 B(  2-B ,  3-B ) :   1.3366 
B(  2-B ,  4-B ) :   0.5452 B(  2-B ,  5-B ) :   0.1639 B(  3-B ,  4-B ) :   1.3361 
B(  3-B ,  5-B ) :   0.1292 B(  3-B ,  9-B ) :   0.1003 B(  4-B ,  5-B ) :   1.0433 
B(  6-B ,  7-B ) :   1.3363 B(  6-B ,  8-B ) :   0.1294 B(  6-B , 10-B ) :   0.1297 
B(  6-B , 11-B ) :   1.3364 B(  7-B ,  8-B ) :   1.0435 B(  7-B , 10-B ) :   0.1644 
B(  7-B , 11-B ) :   0.5452 B(  8-B ,  9-B ) :   1.0030 B(  8-B , 10-B ) :   0.5950 
B(  8-B , 11-B ) :   0.1641 B(  9-B , 10-B ) :   1.0023 B( 10-B , 11-B ) :   1.0440 


-------
TIMINGS
-------

Total SCF time: 0 days 0 hours 0 min 2 sec 

Total time                  ....       2.735 sec
Sum of individual times     ....       2.461 sec  ( 90.0%)

SCF preparation             ....       0.474 sec  ( 17.3%)
Fock matrix formation       ....       1.604 sec  ( 58.6%)
  Startup                   ....       0.007 sec  (  0.5% of F)
  Split-RI-J                ....       0.697 sec  ( 43.4% of F)
  XC integration            ....       1.002 sec  ( 62.5% of F)
    XC Preparation          ....       0.000 sec  (  0.0% of XC)
    Basis function eval.    ....       0.285 sec  ( 28.5% of XC)
    Density eval.           ....       0.174 sec  ( 17.4% of XC)
    XC-Functional eval.     ....       0.043 sec  (  4.3% of XC)
    XC-Potential eval.      ....       0.190 sec  ( 18.9% of XC)
Diagonalization             ....       0.000 sec  (  0.0%)
Density matrix formation    ....       0.034 sec  (  1.2%)
Total Energy calculation    ....       0.026 sec  (  0.9%)
Population analysis         ....       0.101 sec  (  3.7%)
Orbital Transformation      ....       0.015 sec  (  0.6%)
Orbital Orthonormalization  ....       0.000 sec  (  0.0%)
DIIS solution               ....       0.054 sec  (  2.0%)
SOSCF solution              ....       0.154 sec  (  5.6%)
Finished LeanSCF after   2.8 sec

Maximum memory used throughout the entire LEANSCF-calculation: 10.5 MB


-------------------------------------------------------------------------------
                          DFT DISPERSION CORRECTION                            
                                                                               
                              DFTD3 V3.1  Rev 1                                
                          USING Becke-Johnson damping                          
-------------------------------------------------------------------------------
The BP86 functional is recognized
Active option DFTDOPT                   ...         4   

molecular C6(AA) [au] = 5055.641363 


            DFT-D V3
 parameters
 s6 scaling factor         :     1.0000 
 a1 scaling factor         :     0.3946 
 s8 scaling factor         :     3.2822 
 a2 scaling factor         :     4.8516 
 ad hoc parameters k1-k3   :    16.0000     1.3333    -4.0000 

 Edisp/kcal,au: -16.171602470530  -0.025771086197 
 E6   /kcal   :  -4.725822322 
 E8   /kcal   : -11.445780148 
 % E8         :  70.777031336 

-------------------------   ----------------
Dispersion correction           -0.025771086
-------------------------   ----------------


-------------------------   --------------------
FINAL SINGLE POINT ENERGY      -297.491164091540
-------------------------   --------------------

                                *** OPTIMIZATION RUN DONE ***



           ************************************************************
           *        Program running with 8 parallel MPI-processes     *
           *              working on a common directory               *
           ************************************************************

------------------------------------------------------------------------------
                              ORCA PROPERTY CALCULATIONS
------------------------------------------------------------------------------

GBWName                                 ... double_ring_nn1.80.gbw
Number of atoms                         ...     12
Number of basis functions               ...    168
Max core memory                         ...   2500 MB

Electric properties:
Dipole moment                           ... YES
Quadrupole moment                       ...  NO
Static polarizability (Dipole/Dipole)   ...  NO
Static polarizability (Dipole/Quad.)    ...  NO
Static polarizability (Quad./Quad.)     ...  NO
Static polarizability (Velocity)        ...  NO
Static hyperpolarizability              ...  NO

Atomic electric properties:
Dipole moment                           ...  NO
Quadrupole moment                       ...  NO
Static polarizability                   ...  NO

Choice of electric origin               ... Center of mass
Position of electric origin             ...     0.000000     0.000000    -0.000000

General magnetic properties:
Magnetizability                         ...  NO

EPR properties:
g-Tensor (aka g-matrix)                 ...  NO
Zero-Field splitting spin-orbit         ...  NO
Zero-field splitting spin-spin          ...  NO
Hyperfine couplings                     ...  NO (   0 nuclei)
Quadrupole couplings                    ...  NO (   0 nuclei)
Contact density                         ...  NO (   0 nuclei)

NMR properties:
Chemical shifts                         ...  NO (   0 nuclei)
Spin-rotation constants                 ...  NO (   0 nuclei)
Spin-spin couplings                     ...  NO (   0 nuclei,    0 pairs)

Choice of magnetic origin               ... GIAO
Position of magnetic origin             ...     0.000000     0.000000     0.000000

Properties with geometric perturbations:
SCF Hessian                             ...  NO
IR spectrum                             ...  NO
VCD spectrum                            ...  NO
X-ray spectroscopy properties:
SCF XES/XAS/RIXS spectra                ...  NO

SCF SOC stabilization energy            ...  NO
Diagonal Born-Oppenheimer correction    ...  NO

-------------
DIPOLE MOMENT
-------------

Method             : SCF
Type of density    : Electron Density
Multiplicity       :   1
Irrep              :   0
Energy             :  -297.4653930053434010 Eh
Basis              : AO
                                X                 Y                 Z
Electronic contribution:     -0.000901892       0.000034911       0.000000044
Nuclear contribution   :      0.000000000       0.000000000      -0.000000000
                        -----------------------------------------
Total Dipole Moment    :     -0.000901892       0.000034911       0.000000044
                        -----------------------------------------
Magnitude (a.u.)       :      0.000902567
Magnitude (Debye)      :      0.002294143



--------------------
Rotational spectrum 
--------------------
 
Rotational constants in cm-1:             0.215221             0.012647             0.011945 
Rotational constants in MHz :          6452.163293           379.141202           358.098654 

Dipole components along the rotational axes: 
x,y,z [a.u.] :     0.000902     0.000035     0.000000 
x,y,z [Debye]:     0.002292     0.000089     0.000000 

 

Dipole moment calculation done in   0.0 sec 

Maximum memory used throughout the entire PROP-calculation: 8.5 MB

--------------------------------
SUGGESTED CITATIONS FOR THIS RUN
--------------------------------

Below you find a list of papers that are relevant to this ORCA run
We neither can nor want to force you to cite these papers, but we appreciate if you do
You receive ORCA, which is the product of decades of hard work by many enthusiastic individuals, for free
The only thing we kindly ask in return is that you cite our papers,
We deeply appreciate it, if you show your appreciation for ORCA by not just citing the generic ORCA reference.

Please note that relegating all ORCA citations to the supporting information does *not* help us.
SI sections are not indexed - citations you put there will not count into any citation statistics
But we need these citations in order to attract the funding resources that allow us to do what we are doing

Therefore, if you are a happy ORCA user, please consider citing a few of the papers listed below in the main body of your paper

In addition to the list printed below, the program has created the file double_ring_nn1.80.bibtex that contains the list in bibtex format
You can import this file easily into all common literature databanks and citation aid programs

It goes without saying that in many instances, there are alternative algorithms to achieve similar
results as the ones you have gotten from ORCA. It is, of course, also the case that in some instances
ORCA just re-implements algorithms worked out by others. We are fully aware of that and we are also
fully appreciative of our colleagues work. Hence this citation list should not be read as indicating
that the listed papers, which are focused on our own work, are the only ones worth citing. It simply
meant to make it easier for users to cite ORCA specific papers. It is not a substitute for doing your
own literature research and citing the relevant literature in a scientifically appropriate manner.

List of essential papers. We consider these as the minimum necessary citations

  1. Neese, F.
     Software update: the ORCA program system, version 6.0
     WIRES Comput. Molec. Sci. 2025 15(1), e70019
     doi.org/10.1002/wcms.70019

List of papers to cite with high priority. The work reported in these papers was absolutely
necessary for this run to complete.
Our perspective: the developers of density functionals and basis sets usually get cited in chemistry papers
Good! But without the algorithms to do something with them, the functionals or basis sets would not do anything.
Hence, in our opinion, the algorithm design and method developments papers are equally worthy of getting cited

  1. Neese, F.
     An improvement of the resolution of the identity approximation for the formation of the Coulomb matrix
     J. Comp. Chem. 2003 24(14), 1740-1747
     doi.org/10.1002/jcc.10318
  2. Grimme, S.; Antony, J.; Ehrlich, S.; Krieg, H.
     A consistent and accurate ab initio parametrization of density functional dispersion correction (DFT-D) for the 94 elements H-Pu
     J. Chem. Phys. 2010 132 , 154104
     doi.org/10.1063/1.3382344
  3. Grimme, S.; Ehrlich, S.; Goerigk, L.
     Effect of the damping function in dispersion corrected density functional theory
     J. Comput. Chem. 2011 32(7), 1456-1465
     doi.org/10.1002/jcc.21759
  4. Neese, F.
     The SHARK Integral Generation and Digestion System
     J. Comp. Chem. 2022 44(3), 381
     doi.org/10.1002/jcc.26942

List of suggested additional citations. These are papers that are important in the 'surrounding' of 
of this run, or papers that preceded the highly important papers. If you like your results we are grateful for a citation.

  1. Neese, F.
     The ORCA program system
     WIRES Comput. Molec. Sci. 2012 2(1), 73-78
     doi.org/10.1002/wcms.81
  2. Neese, F.
     Software update: the ORCA program system, version 4.0
     WIRES Comput. Molec. Sci. 2018 8(1), 1-6
     doi.org/10.1002/wcms.1327
  3. Neese, F.; Wennmohs, F.; Becker, U.; Riplinger, C.
     The ORCA quantum chemistry program package
     J. Chem. Phys. 2020 152(22), 224108
     doi.org/10.1063/5.0004608
  4. Neese, F.
     Software update: The ORCA program system—Version 5.0
     WIRES Comput. Molec. Sci. 2022 12(1), e1606
     doi.org/10.1002/wcms.1606

List of optional additional citations

  1. Neese, F.
     Approximate second-order SCF convergence for spin unrestricted wavefunctions
     Chem. Phys. Lett. 2000 325(1-3), 93-98
     doi.org/10.1016/s0009-2614(00)00662-x

Timings for individual modules:

Sum of individual times          ...      290.981 sec (=   4.850 min)
Startup calculation              ...       46.575 sec (=   0.776 min)  16.0 %
SCF iterations                   ...      187.074 sec (=   3.118 min)  64.3 %
Property calculations            ...        0.709 sec (=   0.012 min)   0.2 %
SCF Gradient evaluation          ...       56.477 sec (=   0.941 min)  19.4 %
Geometry relaxation              ...        0.145 sec (=   0.002 min)   0.0 %
                             ****ORCA TERMINATED NORMALLY****
TOTAL RUN TIME: 0 days 0 hours 5 minutes 12 seconds 754 msec
