
                                 *****************
                                 * O   R   C   A *
                                 *****************

                                            #,                                       
                                            ###                                      
                                            ####                                     
                                            #####                                    
                                            ######                                   
                                           ########,                                 
                                     ,,################,,,,,                         
                               ,,#################################,,                 
                          ,,##########################################,,             
                       ,#########################################, ''#####,          
                    ,#############################################,,   '####,        
                  ,##################################################,,,,####,       
                ,###########''''           ''''###############################       
              ,#####''   ,,,,##########,,,,          '''####'''          '####       
            ,##' ,,,,###########################,,,                        '##       
           ' ,,###''''                  '''############,,,                           
         ,,##''                                '''############,,,,        ,,,,,,###''
      ,#''                                            '''#######################'''  
     '                                                          ''''####''''         
             ,#######,   #######,   ,#######,      ##                                
            ,#'     '#,  ##    ##  ,#'     '#,    #''#        ,####,    ,#,          
            ##       ##  ##   ,#'  ##            #'  '#       #'       ,# #          
            ##       ##  #######   ##           ,######,      #####,      #          
            '#,     ,#'  ##    ##  '#,     ,#' ,#      #,     #,   #      #          
             '#######'   ##     ##  '#######'  #'      '#     '####' #    #          



                #########################################################
                #                        -***-                          #
                #          Department of theory and spectroscopy        #
                #                                                       #
                #                      Frank Neese                      #
                #                                                       #
                #     Directorship, Architecture, Infrastructure        #
                #                    SHARK, DRIVERS                     #
                #        Core code/Algorithms in most modules           #
                #                                                       #
                #        Max Planck Institute fuer Kohlenforschung      #
                #                Kaiser Wilhelm Platz 1                 #
                #                 D-45470 Muelheim/Ruhr                 #
                #                      Germany                          #
                #                                                       #
                #                  All rights reserved                  #
                #                        -***-                          #
                #########################################################


                         Program Version 6.1.1  -  RELEASE   -
                                (GIT: $487d211c$)
                          ($2025-11-21 10:33:24 +0100$)
                                                                         
                                  - NO-DMRG VERSION -                    
                                                                         


 With contributions from (in alphabetic order):
[Max-Planck-Institut fuer Kohlenforschung]                               
  Daniel Aravena         : Magnetic Suceptibility                        
  Michael Atanasov       : Ab Initio Ligand Field Theory (pilot matlab implementation)
  Alexander A. Auer      : GIAO ZORA, VPT2 properties, NMR spectrum      
  Ute Becker             : All parallelization in ORCA, NUMFREQ, NUMCALC 
  Giovanni Bistoni       : ED, misc. LED, open-shell LED, HFLD           
  Dmytro Bykov           : pre 5.0 version of the SCF Hessian            
  Marcos Casanova-Páez   : Triplet and SCS-CIS(D). UHF-(DLPNO)-IP/EA/STEOM-CCSD. UHF-CVS-IP/STEOM-CCSD   
  Vijay G. Chilkuri      : MRCI spin determinant printing, contributions to CSF-ICE 
  Pauline Colinet        : FMM embedding                                 
  Dipayan Datta          : RHF DLPNO-CCSD density                        
  Achintya Kumar Dutta   : EOM-CC, STEOM-CC                              
  Nicolas Foglia         : Exact transition moments, OPA infrastructure, MCD improvements    
  Dmitry Ganyushin       : Spin-Orbit,Spin-Spin,Magnetic field MRCI      
  Miquel Garcia-Rates    : C-PCM and meta-GGA Hessian, CCSD/C-PCM, Gaussian charge scheme 
  Tiago L. C. Gouveia    : GS-ROHF, GS-ROCIS                             
  Yang Guo               : DLPNO-NEVPT2, F12-NEVPT2, CIM, IAO-localization        
  Andreas Hansen         : Spin unrestricted coupled pair/coupled cluster methods 
  Ingolf Harden          : AUTO-CI MPn and infrastructure                
  Benjamin Helmich-Paris : MC-RPA, TRAH-(SCF,CASSCF), AVAS, COSX integrals, SCF dyn. polar., MC-PDFT, srDFT 
  Lee Huntington         : MR-EOM, pCC                                   
  Robert Izsak           : Overlap fitted RIJCOSX, COSX-SCS-MP3, EOM     
  Riya Kayal             : Wick's Theorem for AUTO-CI, AUTO-CI UHF-CCSDT 
  Emily Kempfer          : AUTO-CI RHF CISDT and CCSDT, approximate NEVPT4
  Christian Kollmar      : KDIIS, OOCD, Brueckner-CCSD(T), CCSD density, CASPT2, CASPT2-K, improved NEVPT2 
  Axel Koslowski         : Symmetry handling                             
  Simone Kossmann        : meta-GGA functionals, TD-DFT gradient, OOMP2, (MP2 Hessian; deprecated post 5.0) 
  Lucas Lang             : DCDCAS, Hyperfine gauge corrections, ICE-SOC+SSC
  Marvin Lechner         : AUTO-CI (C++ implementation), FIC-MRCC        
  Spencer Leger          : CASSCF response                               
  Dagmar Lenk            : GEPOL surface, SMD, ORCA-2-JSON               
  Dimitrios Liakos       : Extrapolation schemes; Compound Job, Property file
  Dimitrios Manganas     : Further ROCIS development; embedding schemes. LFT, Crystal Embedding 
  Dimitrios Pantazis     : SARC Basis sets                               
  Anastasios Papadopoulos: AUTO-CI, single reference methods and gradients 
  Taras Petrenko         : pre 6.0 DFT Hessian and TD-DFT gradient,  ECA, NRVS 
  Petra Pikulova         : Analytic Raman intensities                    
  Peter Pinski           : DLPNO-MP2, DLPNO-MP2 Gradient                 
  Shashank Vittal Rao    : ES-AILFT, MagRelax                            
  Christoph Reimann      : Effective Core Potentials                     
  Marius Retegan         : Local ZFS, SOC                                
  Christoph Riplinger    : Optimizer, TS searches, QM/MM, DLPNO-CCSD(T), (RO)-DLPNO pert. Triples 
  Michael Roemelt        : Original ROCIS implementation, recursive CI coupling coefficients
  Masaaki Saitow         : Open-shell DLPNO-CCSD energy and density      
  Barbara Sandhoefer     : DKH picture change effects                    
  Yorick L. A. Schmerwitz: GMF and freeze-and-release deltaSCF, NEB S-IDPP initial path                    
  Kantharuban Sivalingam : CASSCF convergence/infrastructure, NEVPT2, NEVPT3, NEVPT4(SD), FIC-MRCI and CEPA variants
  Bernardo de Souza      : ESD, SOC TD-DFT                               
  Georgi L. Stoychev     : AutoAux, RI-MP2 NMR, DLPNO-MP2 response, X2C  
  Van Anh Tran           : RI-MP2 g-tensors                              
  Willem Van den Heuvel  : Paramagnetic NMR                              
  Zikuan Wang            : NOTCH, Electric field optimization            
  Frank Wennmohs         : Technical directorship and infrastructure     
  Hang Xu                : AUTO-CI-Response properties                   
                                                                         
[FACCTs GmbH]                                                            
  Markus Bursch, Nicolas Foglia, Miquel Garcia-Rates, Ingolf Harden, Hagen Neugebauer, Anastasios Papadopoulos, 
  Christoph Riplinger, Bernardo de Souza, Georgi L. Stoychev                                                    
                                                                 
  APM, various basis sets, CI-OPT, improved COSX, DLPNO-Multilevel,           
  DOCKER, DRACO, updates on ESD, Fragmentator, GOAT, IRC, LR-CPCM, L-BFGS, MBIS, meta-GGA TD-DFT gradient, ML-optimized integration grids, 
  MM, NACMEs, nearIR, NEB, NEB-TS, NL-DFT gradient (VV10), 2- and 3-layer-ONIOM, interface openCOSMO-RS, QMMM,   
  Crystal-QMMM, RESP, rigid body optimization, SF, symmetry and pop. for TD-DFT, various functionals, SOLVATOR                                   
                                                                         
[Other institutions]                                                     
  V. Asgeirsson          : NEB                                           
  Christoph Bannwarth    : sTDA-DFT, sTD-DFT, PBEh-3c, B97-3c, D3        
  Giovanni Bistoni       : ETS/NOCV, ADLD/ADEX, COVALED                  
  Martin Brehm           : Molecular dynamics                            
  Ronald Cardenas        : ETS/NOCV                                      
  Martina Colucci        : COVALED                                       
  Sebastian Ehlert       : rSCAN, r2SCAN, r2SCAN-3c, D4, dhf basis sets  
  Marvin Friede          : D4 for Fr, Ra, Ac-Lr                          
  Lars Goerigk           : TD-DFT with DH, B97 family of functionals     
  Stefan Grimme          : VdW corrections, initial TS optimization, DFT functionals, gCP, sTDA/sTD-DF 
  Waldemar Hujo          : DFT-NL                                        
  H. Jonsson             : NEB                                           
  Holger Kruse           : gCP                                           
  Marcel Mueller         : wB97X-3c, vDZP basis set                      
  Hagen Neugebauer       : wr2SCAN, Native XTB                           
  Gianluca Regni         : ADLD/ADEX                                     
  Tobias Risthaus        : pre 6.0 range-separated hybrid DFT and stability analysis
  Lukas Wittmann         : regularized MP2, r2SCAN double-hybrids, wr2SCAN        
                                                                         
We gratefully acknowledge several colleagues who have allowed us to      
interface, adapt or use parts of their codes:                            
  Ed Valeev, F. Pavosevic, A. Kumar             : LibInt (2-el integral package), F12 methods 
  Garnet Chan, S. Sharma, J. Yang, R. Olivares  : DMRG                   
  Ulf Ekstrom                                   : XCFun DFT Library      
  Mihaly Kallay                                 : mrcc  (arbitrary order and MRCC methods)
  Frank Weinhold                                : gennbo (NPA and NBO analysis)           
  Simon Mueller                                 : openCOSMO-RS                            
  Christopher J. Cramer and Donald G. Truhlar   : smd solvation model                     
  S Lehtola, MJT Oliveira, MAL Marques          : LibXC Library                           
  Liviu Ungur et al                             : ANISO software                          


 Your calculation uses the libint2 library for the computation of 2-el integrals
 For citations please refer to: http://libint.valeyev.net

 Your ORCA version has been built with support for libXC version: 7.0.0
 For citations please refer to: https://libxc.gitlab.io

 This ORCA versions uses:
   CBLAS   interface :  Fast vector & matrix operations
   LAPACKE interface :  Fast linear algebra routines
   SCALAPACK package :  Parallel linear algebra routines
   Shared memory     :  Shared parallel matrices
   BLAS/LAPACK       :  OpenBLAS 0.3.29  USE64BITINT DYNAMIC_ARCH NO_AFFINITY Zen SINGLE_THREADED
        Core in use  :  Zen
   Copyright (c) 2011-2014, The OpenBLAS Project


  ***********************************
  * Starting time: Thu Apr 23 14:47:11 2026
  * Host name:     vmi3233575
  * Process ID:    1278603
  * Working dir.:  /root/b12_scan/jobs/hex_antiprism_nn1.60
  ***********************************

NOTE: MaxCore=2500 MB was set to SCF,MP2,MDCI,CIPSI,MRCI,RASCI and CIS
      => If you want to overwrite this, your respective input block should be placed after the MaxCore statement
Your calculation utilizes the atom-pairwise dispersion correction
with the Becke-Johnson damping scheme (D3BJ)


================================================================================

----- Orbital basis set information -----
Your calculation utilizes the basis: def2-SVP
   F. Weigend and R. Ahlrichs, Phys. Chem. Chem. Phys. 7, 3297 (2005).

----- AuxJ basis set information -----
Your calculation utilizes the auxiliary basis: def2/J
   H-Rn: F. Weigend, Phys. Chem. Chem. Phys. 8, 1057 (2006).
   Fr-Lr: K. Eichkorn, F. Weigend, O. Treutler, R. Ahlrichs; Theor. Chem. Acc. 97, 119 (1997).

================================================================================
                                        WARNINGS
                       Please study these warnings very carefully!
================================================================================


WARNING: Geometry Optimization
  ===> : Switching off AutoStart
         For restart on a previous wavefunction, please use MOREAD

================================================================================
                                       INPUT FILE
================================================================================
NAME = hex_antiprism_nn1.60.inp
|  1> ! BP86 def2-SVP def2/J RI Opt TightSCF D3BJ
|  2> ! SlowConv
|  3> 
|  4> %pal nprocs 8 end
|  5> %maxcore 2500
|  6> 
|  7> %geom
|  8>   MaxIter 300
|  9> end
| 10> 
| 11> * xyz 0 1
| 12> B      1.67914890     -0.00000000      0.67165956
| 13> B      0.83957445      1.45418560      0.67165956
| 14> B     -0.83957445      1.45418560      0.67165956
| 15> B     -1.67914890      0.00000000      0.67165956
| 16> B     -0.83957445     -1.45418560      0.67165956
| 17> B      0.83957445     -1.45418560      0.67165956
| 18> B      1.45418560      0.83957445     -0.67165956
| 19> B      0.00000000      1.67914890     -0.67165956
| 20> B     -1.45418560      0.83957445     -0.67165956
| 21> B     -1.45418560     -0.83957445     -0.67165956
| 22> B     -0.00000000     -1.67914890     -0.67165956
| 23> B      1.45418560     -0.83957445     -0.67165956
| 24> *
| 25> 
| 26>                          ****END OF INPUT****
================================================================================

                       *****************************
                       * Geometry Optimization Run *
                       *****************************

Geometry optimization settings:
Update method            Update   .... BFGS
Choice of coordinates    CoordSys .... (2022) Redundant Internals
Initial Hessian          InHess   .... Almloef's Model
Max. no of cycles        MaxIter  .... 300

Convergence Tolerances:
Energy Change            TolE     ....  5.0000e-06 Eh
Max. Gradient            TolMAXG  ....  3.0000e-04 Eh/bohr
RMS Gradient             TolRMSG  ....  1.0000e-04 Eh/bohr
Max. Displacement        TolMAXD  ....  4.0000e-03 bohr
RMS Displacement         TolRMSD  ....  2.0000e-03 bohr
Strict Convergence                .... False

------------------------------------------------------------------------------
                        ORCA OPTIMIZATION COORDINATE SETUP
------------------------------------------------------------------------------

The optimization will be done in redundant internal coordinates (2022)
Making redundant internal coordinates   ...  (2022 redundants) done
Evaluating the initial hessian          ...  (Almloef) done
Evaluating the coordinates              ...  done
Calculating the B-matrix                .... done
Calculating the G-matrix                .... done
The number of degrees of freedom        ....  240

    -----------------------------------------------------------------
                    Redundant Internal Coordinates


    -----------------------------------------------------------------
         Definition                    Initial Value    Approx d2E/dq
    -----------------------------------------------------------------
      1. B(B   1,B   0)                  1.6791         0.289771   
      2. B(B   2,B   1)                  1.6791         0.289771   
      3. B(B   3,B   2)                  1.6791         0.289771   
      4. B(B   4,B   3)                  1.6791         0.289771   
      5. B(B   5,B   4)                  1.6791         0.289771   
      6. B(B   5,B   0)                  1.6791         0.289771   
      7. B(B   6,B   0)                  1.6000         0.387554   
      8. B(B   6,B   1)                  1.6000         0.387554   
      9. B(B   7,B   6)                  1.6791         0.289771   
     10. B(B   7,B   2)                  1.6000         0.387554   
     11. B(B   7,B   1)                  1.6000         0.387554   
     12. B(B   8,B   7)                  1.6791         0.289771   
     13. B(B   8,B   3)                  1.6000         0.387554   
     14. B(B   8,B   2)                  1.6000         0.387554   
     15. B(B   9,B   3)                  1.6000         0.387554   
     16. B(B   9,B   8)                  1.6791         0.289771   
     17. B(B   9,B   4)                  1.6000         0.387554   
     18. B(B  10,B   9)                  1.6791         0.289771   
     19. B(B  10,B   5)                  1.6000         0.387554   
     20. B(B  10,B   4)                  1.6000         0.387554   
     21. B(B  11,B  10)                  1.6791         0.289771   
     22. B(B  11,B   6)                  1.6791         0.289771   
     23. B(B  11,B   5)                  1.6000         0.387554   
     24. B(B  11,B   0)                  1.6000         0.387554   
     25. A(B   1,B   0,B   5)          120.0000         0.344177   
     26. A(B   6,B   0,B  11)           63.3007         0.380075   
     27. A(B   5,B   0,B  11)           58.3497         0.361536   
     28. A(B   1,B   0,B   6)           58.3497         0.361536   
     29. A(B   1,B   0,B  11)          112.5899         0.361536   
     30. A(B   5,B   0,B   6)          112.5899         0.361536   
     31. A(B   0,B   1,B   6)           58.3497         0.361536   
     32. A(B   0,B   1,B   2)          120.0000         0.344177   
     33. A(B   2,B   1,B   7)           58.3497         0.361536   
     34. A(B   6,B   1,B   7)           63.3007         0.380075   
     35. A(B   2,B   1,B   6)          112.5899         0.361536   
     36. A(B   0,B   1,B   7)          112.5899         0.361536   
     37. A(B   1,B   2,B   3)          120.0000         0.344177   
     38. A(B   7,B   2,B   8)           63.3007         0.380075   
     39. A(B   1,B   2,B   7)           58.3497         0.361536   
     40. A(B   3,B   2,B   8)           58.3497         0.361536   
     41. A(B   3,B   2,B   7)          112.5899         0.361536   
     42. A(B   1,B   2,B   8)          112.5899         0.361536   
     43. A(B   2,B   3,B   8)           58.3497         0.361536   
     44. A(B   4,B   3,B   9)           58.3497         0.361536   
     45. A(B   4,B   3,B   8)          112.5899         0.361536   
     46. A(B   2,B   3,B   4)          120.0000         0.344177   
     47. A(B   8,B   3,B   9)           63.3007         0.380075   
     48. A(B   2,B   3,B   9)          112.5899         0.361536   
     49. A(B   5,B   4,B  10)           58.3497         0.361536   
     50. A(B   9,B   4,B  10)           63.3007         0.380075   
     51. A(B   3,B   4,B  10)          112.5899         0.361536   
     52. A(B   3,B   4,B   5)          120.0000         0.344177   
     53. A(B   5,B   4,B   9)          112.5899         0.361536   
     54. A(B   3,B   4,B   9)           58.3497         0.361536   
     55. A(B  10,B   5,B  11)           63.3007         0.380075   
     56. A(B   0,B   5,B  11)           58.3497         0.361536   
     57. A(B   0,B   5,B   4)          120.0000         0.344177   
     58. A(B   4,B   5,B  10)           58.3497         0.361536   
     59. A(B   0,B   5,B  10)          112.5899         0.361536   
     60. A(B   4,B   5,B  11)          112.5899         0.361536   
     61. A(B   0,B   6,B  11)           58.3497         0.361536   
     62. A(B   1,B   6,B  11)          112.5899         0.361536   
     63. A(B   0,B   6,B   1)           63.3007         0.380075   
     64. A(B   1,B   6,B   7)           58.3497         0.361536   
     65. A(B   0,B   6,B   7)          112.5899         0.361536   
     66. A(B   7,B   6,B  11)          120.0000         0.344177   
     67. A(B   6,B   7,B   8)          120.0000         0.344177   
     68. A(B   2,B   7,B   8)           58.3497         0.361536   
     69. A(B   1,B   7,B   8)          112.5899         0.361536   
     70. A(B   2,B   7,B   6)          112.5899         0.361536   
     71. A(B   1,B   7,B   6)           58.3497         0.361536   
     72. A(B   1,B   7,B   2)           63.3007         0.380075   
     73. A(B   2,B   8,B   7)           58.3497         0.361536   
     74. A(B   2,B   8,B   3)           63.3007         0.380075   
     75. A(B   7,B   8,B   9)          120.0000         0.344177   
     76. A(B   3,B   8,B   9)           58.3497         0.361536   
     77. A(B   2,B   8,B   9)          112.5899         0.361536   
     78. A(B   3,B   8,B   7)          112.5899         0.361536   
     79. A(B   8,B   9,B  10)          120.0000         0.344177   
     80. A(B   4,B   9,B  10)           58.3497         0.361536   
     81. A(B   3,B   9,B  10)          112.5899         0.361536   
     82. A(B   4,B   9,B   8)          112.5899         0.361536   
     83. A(B   3,B   9,B   8)           58.3497         0.361536   
     84. A(B   3,B   9,B   4)           63.3007         0.380075   
     85. A(B   5,B  10,B   9)          112.5899         0.361536   
     86. A(B   4,B  10,B   9)           58.3497         0.361536   
     87. A(B   4,B  10,B   5)           63.3007         0.380075   
     88. A(B   9,B  10,B  11)          120.0000         0.344177   
     89. A(B   5,B  10,B  11)           58.3497         0.361536   
     90. A(B   4,B  10,B  11)          112.5899         0.361536   
     91. A(B   0,B  11,B   5)           63.3007         0.380075   
     92. A(B   6,B  11,B  10)          120.0000         0.344177   
     93. A(B   5,B  11,B  10)           58.3497         0.361536   
     94. A(B   0,B  11,B  10)          112.5899         0.361536   
     95. A(B   5,B  11,B   6)          112.5899         0.361536   
     96. A(B   0,B  11,B   6)           58.3497         0.361536   
     97. D(B   2,B   1,B   0,B  11)     65.4144         0.010000   
     98. D(B   2,B   1,B   0,B   5)      0.0000         0.010000   
     99. D(B   6,B   1,B   0,B  11)    -34.0926         0.010000   
    100. D(B   2,B   1,B   0,B   6)     99.5070         0.010000   
    101. D(B   7,B   1,B   0,B   5)    -65.4144         0.010000   
    102. D(B   6,B   1,B   0,B   5)    -99.5070         0.010000   
    103. D(B   8,B   2,B   1,B   0)    -65.4144         0.010000   
    104. D(B   3,B   2,B   1,B   6)     65.4144         0.010000   
    105. D(B   3,B   2,B   1,B   0)      0.0000         0.010000   
    106. D(B   7,B   2,B   1,B   0)    -99.5070         0.010000   
    107. D(B   7,B   2,B   1,B   6)    -34.0926         0.010000   
    108. D(B   3,B   2,B   1,B   7)     99.5070         0.010000   
    109. D(B   4,B   3,B   2,B   8)     99.5070         0.010000   
    110. D(B   8,B   3,B   2,B   1)    -99.5070         0.010000   
    111. D(B   4,B   3,B   2,B   7)     65.4144         0.010000   
    112. D(B   4,B   3,B   2,B   1)      0.0000         0.010000   
    113. D(B   9,B   3,B   2,B   1)    -65.4144         0.010000   
    114. D(B   8,B   3,B   2,B   7)    -34.0926         0.010000   
    115. D(B   5,B   4,B   3,B   9)     99.5070         0.010000   
    116. D(B   9,B   4,B   3,B   2)    -99.5070         0.010000   
    117. D(B   5,B   4,B   3,B   2)      0.0000         0.010000   
    118. D(B   5,B   4,B   3,B   8)     65.4144         0.010000   
    119. D(B   9,B   4,B   3,B   8)    -34.0926         0.010000   
    120. D(B  10,B   4,B   3,B   2)    -65.4144         0.010000   
    121. D(B   4,B   5,B   0,B  11)    -99.5070         0.010000   
    122. D(B  10,B   5,B   0,B   6)      0.0000         0.010000   
    123. D(B  10,B   5,B   0,B  11)    -34.0926         0.010000   
    124. D(B   4,B   5,B   0,B   6)    -65.4144         0.010000   
    125. D(B   4,B   5,B   0,B   1)      0.0000         0.010000   
    126. D(B   0,B   5,B   4,B   3)      0.0000         0.010000   
    127. D(B  10,B   5,B   0,B   1)     65.4144         0.010000   
    128. D(B  10,B   5,B   4,B   9)    -34.0926         0.010000   
    129. D(B   0,B   5,B   4,B  10)     99.5070         0.010000   
    130. D(B  10,B   5,B   4,B   3)    -99.5070         0.010000   
    131. D(B  11,B   5,B   4,B   3)    -65.4144         0.010000   
    132. D(B   0,B   5,B   4,B   9)     65.4144         0.010000   
    133. D(B  11,B   6,B   1,B   2)    -80.0319         0.010000   
    134. D(B   7,B   6,B   1,B   2)     32.2836         0.010000   
    135. D(B   7,B   6,B   1,B   0)    144.5992         0.010000   
    136. D(B   0,B   6,B   1,B   7)   -144.5992         0.010000   
    137. D(B   0,B   6,B   1,B   2)   -112.3155         0.010000   
    138. D(B  11,B   6,B   0,B   1)   -144.5992         0.010000   
    139. D(B   7,B   6,B   0,B   1)    -32.2836         0.010000   
    140. D(B   1,B   6,B   0,B  11)    144.5992         0.010000   
    141. D(B   1,B   6,B   0,B   5)    112.3155         0.010000   
    142. D(B  11,B   6,B   1,B   0)     32.2836         0.010000   
    143. D(B   7,B   6,B   0,B   5)     80.0319         0.010000   
    144. D(B   7,B   6,B   0,B  11)    112.3155         0.010000   
    145. D(B   1,B   7,B   6,B  11)     99.5070         0.010000   
    146. D(B   1,B   7,B   6,B   0)     34.0926         0.010000   
    147. D(B   8,B   7,B   2,B   1)    144.5992         0.010000   
    148. D(B   1,B   7,B   2,B   3)   -112.3155         0.010000   
    149. D(B   1,B   7,B   2,B   8)   -144.5992         0.010000   
    150. D(B   6,B   7,B   2,B   3)    -80.0319         0.010000   
    151. D(B   8,B   7,B   1,B   2)    -32.2836         0.010000   
    152. D(B   6,B   7,B   2,B   8)   -112.3155         0.010000   
    153. D(B   8,B   7,B   1,B   0)     80.0319         0.010000   
    154. D(B   6,B   7,B   1,B   2)   -144.5992         0.010000   
    155. D(B   6,B   7,B   2,B   1)     32.2836         0.010000   
    156. D(B   2,B   7,B   1,B   0)    112.3155         0.010000   
    157. D(B   2,B   7,B   1,B   6)    144.5992         0.010000   
    158. D(B   2,B   7,B   6,B   0)     -0.0000         0.010000   
    159. D(B   6,B   7,B   1,B   0)    -32.2836         0.010000   
    160. D(B   8,B   7,B   6,B   0)    -65.4144         0.010000   
    161. D(B   2,B   7,B   6,B  11)     65.4144         0.010000   
    162. D(B   2,B   7,B   6,B   1)    -34.0926         0.010000   
    163. D(B   9,B   8,B   7,B   1)    -65.4144         0.010000   
    164. D(B   3,B   8,B   7,B   6)     65.4144         0.010000   
    165. D(B   3,B   8,B   7,B   2)    -34.0926         0.010000   
    166. D(B   3,B   8,B   7,B   1)      0.0000         0.010000   
    167. D(B   2,B   8,B   7,B   6)     99.5070         0.010000   
    168. D(B   9,B   8,B   3,B   2)    144.5992         0.010000   
    169. D(B   7,B   8,B   3,B   9)   -112.3155         0.010000   
    170. D(B   7,B   8,B   3,B   4)    -80.0319         0.010000   
    171. D(B   7,B   8,B   3,B   2)     32.2836         0.010000   
    172. D(B   2,B   8,B   3,B   9)   -144.5992         0.010000   
    173. D(B   2,B   8,B   3,B   4)   -112.3155         0.010000   
    174. D(B   2,B   8,B   7,B   1)     34.0926         0.010000   
    175. D(B   9,B   8,B   2,B   3)    -32.2836         0.010000   
    176. D(B   7,B   8,B   2,B   1)    -32.2836         0.010000   
    177. D(B   3,B   8,B   2,B   7)    144.5992         0.010000   
    178. D(B   3,B   8,B   2,B   1)    112.3155         0.010000   
    179. D(B   9,B   8,B   2,B   1)     80.0319         0.010000   
    180. D(B   7,B   8,B   2,B   3)   -144.5992         0.010000   
    181. D(B  10,B   9,B   8,B   2)    -65.4144         0.010000   
    182. D(B   4,B   9,B   8,B   7)     65.4144         0.010000   
    183. D(B   4,B   9,B   8,B   3)    -34.0926         0.010000   
    184. D(B   4,B   9,B   8,B   2)      0.0000         0.010000   
    185. D(B   3,B   9,B   8,B   7)     99.5070         0.010000   
    186. D(B   3,B   9,B   8,B   2)     34.0926         0.010000   
    187. D(B  10,B   9,B   4,B   3)    144.5992         0.010000   
    188. D(B   8,B   9,B   4,B  10)   -112.3155         0.010000   
    189. D(B   8,B   9,B   4,B   5)    -80.0319         0.010000   
    190. D(B   8,B   9,B   4,B   3)     32.2836         0.010000   
    191. D(B   3,B   9,B   4,B  10)   -144.5992         0.010000   
    192. D(B   3,B   9,B   4,B   5)   -112.3155         0.010000   
    193. D(B  10,B   9,B   3,B   4)    -32.2836         0.010000   
    194. D(B  10,B   9,B   3,B   2)     80.0319         0.010000   
    195. D(B   8,B   9,B   3,B   4)   -144.5992         0.010000   
    196. D(B   8,B   9,B   3,B   2)    -32.2836         0.010000   
    197. D(B   4,B   9,B   3,B   8)    144.5992         0.010000   
    198. D(B   4,B   9,B   3,B   2)    112.3155         0.010000   
    199. D(B  11,B  10,B   9,B   3)    -65.4144         0.010000   
    200. D(B   5,B  10,B   9,B   4)    -34.0926         0.010000   
    201. D(B   5,B  10,B   9,B   3)     -0.0000         0.010000   
    202. D(B   4,B  10,B   9,B   8)     99.5070         0.010000   
    203. D(B   4,B  10,B   9,B   3)     34.0926         0.010000   
    204. D(B  11,B  10,B   5,B   0)     32.2836         0.010000   
    205. D(B   9,B  10,B   5,B  11)   -112.3155         0.010000   
    206. D(B   9,B  10,B   5,B   4)     32.2836         0.010000   
    207. D(B   9,B  10,B   5,B   0)    -80.0319         0.010000   
    208. D(B   4,B  10,B   5,B  11)   -144.5992         0.010000   
    209. D(B   4,B  10,B   5,B   0)   -112.3155         0.010000   
    210. D(B  11,B  10,B   4,B   5)    -32.2836         0.010000   
    211. D(B  11,B  10,B   4,B   3)     80.0319         0.010000   
    212. D(B   9,B  10,B   4,B   5)   -144.5992         0.010000   
    213. D(B   9,B  10,B   4,B   3)    -32.2836         0.010000   
    214. D(B   5,B  10,B   9,B   8)     65.4144         0.010000   
    215. D(B   5,B  10,B   4,B   9)    144.5992         0.010000   
    216. D(B   5,B  10,B   4,B   3)    112.3155         0.010000   
    217. D(B  10,B  11,B   0,B   5)     32.2836         0.010000   
    218. D(B  10,B  11,B   0,B   1)    -80.0319         0.010000   
    219. D(B   6,B  11,B   0,B   5)    144.5992         0.010000   
    220. D(B   6,B  11,B   0,B   1)     32.2836         0.010000   
    221. D(B   5,B  11,B   0,B   6)   -144.5992         0.010000   
    222. D(B   0,B  11,B   5,B   4)    112.3155         0.010000   
    223. D(B   5,B  11,B   0,B   1)   -112.3155         0.010000   
    224. D(B   6,B  11,B  10,B   4)    -65.4144         0.010000   
    225. D(B   5,B  11,B  10,B   4)     34.0926         0.010000   
    226. D(B   0,B  11,B  10,B   9)     65.4144         0.010000   
    227. D(B   0,B  11,B  10,B   5)    -34.0926         0.010000   
    228. D(B  10,B  11,B   6,B   0)     99.5070         0.010000   
    229. D(B   5,B  11,B   6,B   7)    -65.4144         0.010000   
    230. D(B   5,B  11,B   6,B   1)     -0.0000         0.010000   
    231. D(B   5,B  11,B   6,B   0)     34.0926         0.010000   
    232. D(B   0,B  11,B   6,B   7)    -99.5070         0.010000   
    233. D(B   0,B  11,B   6,B   1)    -34.0926         0.010000   
    234. D(B   0,B  11,B  10,B   4)      0.0000         0.010000   
    235. D(B  10,B  11,B   5,B   0)   -144.5992         0.010000   
    236. D(B   6,B  11,B   5,B  10)    112.3155         0.010000   
    237. D(B   6,B  11,B   5,B   4)     80.0319         0.010000   
    238. D(B   5,B  11,B  10,B   9)     99.5070         0.010000   
    239. D(B   6,B  11,B   5,B   0)    -32.2836         0.010000   
    240. D(B   0,B  11,B   5,B  10)    144.5992         0.010000   
    -----------------------------------------------------------------

Number of atoms                         .... 12
Number of degrees of freedom            .... 240


         *************************************************************
         *                GEOMETRY OPTIMIZATION CYCLE   1            *
         *************************************************************
---------------------------------
CARTESIAN COORDINATES (ANGSTROEM)
---------------------------------
  B      1.679149   -0.000000    0.671660
  B      0.839574    1.454186    0.671660
  B     -0.839574    1.454186    0.671660
  B     -1.679149    0.000000    0.671660
  B     -0.839574   -1.454186    0.671660
  B      0.839574   -1.454186    0.671660
  B      1.454186    0.839574   -0.671660
  B      0.000000    1.679149   -0.671660
  B     -1.454186    0.839574   -0.671660
  B     -1.454186   -0.839574   -0.671660
  B     -0.000000   -1.679149   -0.671660
  B      1.454186   -0.839574   -0.671660

----------------------------
CARTESIAN COORDINATES (A.U.)
----------------------------
  NO LB      ZA    FRAG     MASS         X           Y           Z
   0 B     5.0000    0    10.810    3.173132   -0.000000    1.269253
   1 B     5.0000    0    10.810    1.586566    2.748013    1.269253
   2 B     5.0000    0    10.810   -1.586566    2.748013    1.269253
   3 B     5.0000    0    10.810   -3.173132    0.000000    1.269253
   4 B     5.0000    0    10.810   -1.586566   -2.748013    1.269253
   5 B     5.0000    0    10.810    1.586566   -2.748013    1.269253
   6 B     5.0000    0    10.810    2.748013    1.586566   -1.269253
   7 B     5.0000    0    10.810    0.000000    3.173132   -1.269253
   8 B     5.0000    0    10.810   -2.748013    1.586566   -1.269253
   9 B     5.0000    0    10.810   -2.748013   -1.586566   -1.269253
  10 B     5.0000    0    10.810   -0.000000   -3.173132   -1.269253
  11 B     5.0000    0    10.810    2.748013   -1.586566   -1.269253

--------------------------------
INTERNAL COORDINATES (ANGSTROEM)
--------------------------------
 B      0   0   0     0.000000000000     0.00000000     0.00000000
 B      1   0   0     1.679148896418     0.00000000     0.00000000
 B      2   1   0     1.679148900000   120.00000007     0.00000000
 B      3   2   1     1.679148896418   120.00000007     0.00000000
 B      4   3   2     1.679148896418   119.99999986     0.00000000
 B      1   2   3     1.679148896418   119.99999986     0.00000000
 B      2   1   3     1.599999996739    58.34966006   260.49299792
 B      2   1   3     1.600000000499   112.58986271   294.58559909
 B      3   2   1     1.599999996739   112.58986244   294.58559904
 B      5   4   3     1.599999996739    58.34966006   260.49299792
 B      5   4   3     1.600000000499   112.58986271   294.58559909
 B      6   1   2     1.599999996739    58.34966006    99.50700208

---------------------------
INTERNAL COORDINATES (A.U.)
---------------------------
 B      0   0   0     0.000000000000     0.00000000     0.00000000
 B      1   0   0     3.173131552305     0.00000000     0.00000000
 B      2   1   0     3.173131559075   120.00000007     0.00000000
 B      3   2   1     3.173131552305   120.00000007     0.00000000
 B      4   3   2     3.173131552305   119.99999986     0.00000000
 B      1   2   3     3.173131552305   119.99999986     0.00000000
 B      2   1   3     3.023561808112    58.34966006   260.49299792
 B      2   1   3     3.023561815217   112.58986271   294.58559909
 B      3   2   1     3.023561808112   112.58986244   294.58559904
 B      5   4   3     3.023561808112    58.34966006   260.49299792
 B      5   4   3     3.023561815217   112.58986271   294.58559909
 B      6   1   2     3.023561808112    58.34966006    99.50700208

---------------------
BASIS SET INFORMATION
---------------------
There are 1 groups of distinct atoms

 Group   1 Type B   : 7s4p1d contracted to 3s2p1d pattern {511/31/1}

Atom   0B    basis set group =>   1
Atom   1B    basis set group =>   1
Atom   2B    basis set group =>   1
Atom   3B    basis set group =>   1
Atom   4B    basis set group =>   1
Atom   5B    basis set group =>   1
Atom   6B    basis set group =>   1
Atom   7B    basis set group =>   1
Atom   8B    basis set group =>   1
Atom   9B    basis set group =>   1
Atom  10B    basis set group =>   1
Atom  11B    basis set group =>   1
---------------------------------
AUXILIARY/J BASIS SET INFORMATION
---------------------------------
There are 1 groups of distinct atoms

 Group   1 Type B   : 12s5p4d2f1g contracted to 6s4p3d1f1g pattern {711111/2111/211/2/1}

Atom   0B    basis set group =>   1
Atom   1B    basis set group =>   1
Atom   2B    basis set group =>   1
Atom   3B    basis set group =>   1
Atom   4B    basis set group =>   1
Atom   5B    basis set group =>   1
Atom   6B    basis set group =>   1
Atom   7B    basis set group =>   1
Atom   8B    basis set group =>   1
Atom   9B    basis set group =>   1
Atom  10B    basis set group =>   1
Atom  11B    basis set group =>   1


           ************************************************************
           *        Program running with 8 parallel MPI-processes     *
           *              working on a common directory               *
           ************************************************************
------------------------------------------------------------------------------
                             ORCA STARTUP CALCULATIONS
                           -- RI-GTO INTEGRALS CHOSEN --
------------------------------------------------------------------------------
------------------------------------------------------------------------------
                   ___                                                        
                  /   \      - P O W E R E D   B Y -                         
                 /     \                                                     
                 |  |  |   _    _      __       _____    __    __             
                 |  |  |  | |  | |    /  \     |  _  \  |  |  /  |          
                  \  \/   | |  | |   /    \    | | | |  |  | /  /          
                 / \  \   | |__| |  /  /\  \   | |_| |  |  |/  /          
                |  |  |   |  __  | /  /__\  \  |    /   |      \           
                |  |  |   | |  | | |   __   |  |    \   |  |\   \          
                \     /   | |  | | |  |  |  |  | |\  \  |  | \   \       
                 \___/    |_|  |_| |__|  |__|  |_| \__\ |__|  \__/        
                                                                              
                      - O R C A' S   B I G   F R I E N D -                    
                                      &                                       
                       - I N T E G R A L  F E E D E R -                       
                                                                              
 v1 FN, 2020, v2 2021, v3 2022-2024                                           
------------------------------------------------------------------------------


----------------------
SHARK INTEGRAL PACKAGE
----------------------

Number of atoms                             ...     12
Number of basis functions                   ...    168
Number of shells                            ...     72
Maximum angular momentum                    ...      2
Integral batch strategy                     ... SHARK/LIBINT Hybrid
RI-J (if used) integral strategy            ... SPLIT-RIJ (Revised 2003 algorithm where possible)
Printlevel                                  ...      1
Contraction scheme used                     ... SEGMENTED contraction
Prescreening option                         ... SCHWARTZ
   Thresh                                   ... 2.500e-11
   Tcut                                     ... 2.500e-12
   Tpresel                                  ... 2.500e-12 
Coulomb Range Separation                    ... NOT USED
Exchange Range Separation                   ... NOT USED
Multipole approximations                    ... NOT USED
Finite Nucleus Model                        ... NOT USED
CABS basis                                  ... NOT available
Auxiliary Coulomb fitting basis             ... AVAILABLE
   # of basis functions in Aux-J            ...    588
   # of shells in Aux-J                     ...    180
   Maximum angular momentum in Aux-J        ...      4
Auxiliary J/K fitting basis                 ... NOT available
Auxiliary Correlation fitting basis         ... NOT available
Auxiliary 'external' fitting basis          ... NOT available

Checking pre-screening integrals            ... done (  0.0 sec) Dimension = 72
   => SHARK Basis and OBASIS are compatible. Storing Pre-screening
Shell pair information
Shell pair cut-off parameter TPreSel        ...   2.5e-12
Total number of shell pairs                 ...      2628
Shell pairs after pre-screening             ...      2586
Total number of primitive shell pairs       ...     10596
Primitive shell pairs kept                  ...      8088
          la=0 lb=0:    624 shell pairs
          la=1 lb=0:    864 shell pairs
          la=1 lb=1:    300 shell pairs
          la=2 lb=0:    432 shell pairs
          la=2 lb=1:    288 shell pairs
          la=2 lb=2:     78 shell pairs

Checking whether 4 symmetric matrices of dimension 168 fit in memory
:Max Core in MB      =   2500.00
 MB in use           =      6.94
 MB left             =   2493.06
 MB needed           =      0.43
 Data fit in memory  = YES
Calculating RI/J V-Matrix + Cholesky decomp.... done (  0.0 sec)
Calculating Nuclear repulsion               ... done (  0.0 sec) ENN=    375.388954089276 Eh

Diagonalization of the overlap matrix:
Smallest eigenvalue                        ... 6.164e-05
Time for diagonalization                   ...    0.007 sec
Threshold for overlap eigenvalues          ... 1.000e-07
Number of eigenvalues below threshold      ... 0
Time for construction of square roots      ...    0.002 sec
Total time needed                          ...    0.012 sec

-------------------
DFT GRID GENERATION
-------------------

General Integration Accuracy     IntAcc      ... 4.388
Radial Grid Type                 RadialGrid  ... OptM3 with GC (2021)
Angular Grid (max. ang.)         AngularGrid ... 4 (Lebedev-302)
Angular grid pruning method      GridPruning ... 4 (adaptive)
Weight generation scheme         WeightScheme... mBecke (2022)
Basis function cutoff            BFCut       ... 1.0000e-11
Integration weight cutoff        WCut        ... 1.0000e-14
Partially contracted basis set               ... off
Rotationally invariant grid construction     ... off
Angular grids for H and He will be reduced by one unit

Total number of grid points                  ...    70304
Total number of batches                      ...     1104
Average number of points per batch           ...       63
Average number of grid points per atom       ...     5859
Grids setup in   0.7 sec
Initializing property integral containers    ... done (  0.0 sec)

SHARK setup successfully completed in   0.9 seconds

Maximum memory used throughout the entire STARTUP-calculation: 19.8 MB


           ************************************************************
           *        Program running with 8 parallel MPI-processes     *
           *              working on a common directory               *
           ************************************************************
-------------------------------------------------------------------------------
                                 ORCA GUESS
                   Start orbitals & Density for SCF / CASSCF
-------------------------------------------------------------------------------

------------
SCF SETTINGS
------------
Hamiltonian:
 Density Functional     Method          .... DFT(GTOs)
 Exchange Functional    Exchange        .... B88
   X-Alpha parameter    XAlpha          ....  0.666667
   Becke's b parameter  XBeta           ....  0.004200
 Correlation Functional Correlation     .... P86
 LDA part of GGA corr.  LDAOpt          .... PW91-LDA
 Gradients option       PostSCFGGA      .... off
   NL short-range parameter             ....  4.400000
 RI-approximation to the Coulomb term is turned on
   Number of AuxJ basis functions       .... 588


General Settings:
 Integral files         IntName         .... hex_antiprism_nn1.60
 Hartree-Fock type      HFTyp           .... RHF
 Total Charge           Charge          ....    0
 Multiplicity           Mult            ....    1
 Number of Electrons    NEL             ....   60
 Basis Dimension        Dim             ....  168
 Nuclear Repulsion      ENuc            ....    375.3889540893 Eh

Convergence Acceleration:
 AO-DIIS                CNVDIIS         .... on
   Start iteration      DIISMaxIt       ....     0
   Startup error        DIISStart       ....  0.200000
   # of expansion vecs  DIISMaxEq       ....     5
   Bias factor          DIISBfac        ....   1.050
   Max. coefficient     DIISMaxC        ....  10.000
 MO-DIIS                CNVKDIIS        .... off
 Trust-Rad. Augm. Hess. CNVTRAH         .... auto
   Auto Start mean grad. ratio tolernc. ....  1.125000
   Auto Start start iteration           ....    50
   Auto Start num. interpolation iter.  ....    10
   Max. Number of Micro iterations      ....    24
   Max. Number of Macro iterations      .... Maxiter - #DIIS iter
   Number of Davidson start vectors     ....     2
   Converg. threshold    (grad. norm)   ....   1.000e-05
   Grad. Scal. Fac. for Micro threshold ....   0.100
   Minimum threshold for Micro iter.    ....   1.000e-02
   NR start threshold (gradient norm)   ....   1.000e-04
   Initial trust radius                 ....   0.400
   Minimum AH scaling param. (alpha)    ....   1.000
   Maximum AH scaling param. (alpha)    .... 1000.000
   Quad. conv. algorithm                .... NR
   White noise on init. David. guess    .... on
   Maximum white noise                  ....   0.010
   Pseudo random numbers                .... off
   Inactive MOs                         .... canonical
   Orbital update algorithm             .... Taylor
   Preconditioner                       .... Diag
   Full preconditioner red. dimension   ....   250
 SOSCF                 CNVSOSCF           .... on
   Start iteration     SOSCFMaxIt         ....   150
   Startup grad/error  SOSCFStart         ....  0.001000
   Hessian update      SOSCFHessUp        .... L-BFGS
   Autom. constraints  SOSCFAutoConstrain .... off
 Level Shifting         CNVShift        .... on
   Level shift para.    LevelShift      ....    0.2500
   Turn off err/grad.   ShiftErr        ....    0.0000
 Zerner damping         CNVZerner       .... off
 Static damping         CNVDamp         .... on
   Fraction old density DampFac         ....    0.8500
   Max. Damping (<1)    DampMax         ....    0.9800
   Min. Damping (>=0)   DampMin         ....    0.0000
   Turn off err/grad.   DampErr         ....    0.0300

SCF Procedure:
 Maximum # iterations   MaxIter         ....   125
 SCF integral mode      SCFMode         .... Direct
   Integral package                     .... SHARK and LIBINT hybrid scheme
 Reset frequency        DirectResetFreq ....    20
 Integral Threshold     Thresh          ....  2.500e-11 Eh
 Primitive CutOff       TCut            ....  2.500e-12 Eh

Convergence Tolerance:
 Convergence Check Mode ConvCheckMode   .... Total+1el-Energy
 Convergence forced     ConvForced      .... 0
 Energy Change          TolE            ....  1.000e-08 Eh
 1-El. energy change                    ....  1.000e-05 Eh
 Orbital Gradient       TolG            ....  1.000e-05
 Orbital Rotation angle TolX            ....  1.000e-05
 DIIS Error             TolErr          ....  5.000e-07

------------------------------
INITIAL GUESS: MODEL POTENTIAL
------------------------------
Loading Hartree-Fock densities                     ... done
Calculating cut-offs                               ... done
Initializing the effective Hamiltonian             ... done
Setting up the integral package (SHARK)            ... done
Starting the Coulomb interaction                   ... done (   0.1 sec)
Making the grid                                    ... done (   0.1 sec)
Mapping shells                                     ... done
Starting the XC term evaluation                    ... done (   0.1 sec)
  promolecular density results
     # of electrons  =     60.004263044
     EX              =    -46.110004013
     EC              =     -2.043301337
     EX+EC           =    -48.153305350
Transforming the Hamiltonian                       ... done (   0.0 sec)
Diagonalizing the Hamiltonian                      ... done (   0.0 sec)
Back transforming the eigenvectors                 ... done (   0.0 sec)
Now organizing SCF variables                       ... done
                      ------------------
                      INITIAL GUESS DONE (   0.3 sec)
                      ------------------
             **** ENERGY FILE WAS UPDATED (hex_antiprism_nn1.60.en.tmp) ****
Finished Guess after   0.8 sec
Maximum memory used throughout the entire GUESS-calculation: 9.8 MB


           ************************************************************
           *        Program running with 8 parallel MPI-processes     *
           *              working on a common directory               *
           ************************************************************

-------------------------------------------------------------------------------------------
                                      ORCA LEAN-SCF
                              memory conserving SCF solver
-------------------------------------------------------------------------------------------

----------------------------------------D-I-I-S--------------------------------------------
Iteration    Energy (Eh)           Delta-E    RMSDP     MaxDP     DIISErr   Damp  Time(sec)
-------------------------------------------------------------------------------------------
               ***  Starting incremental Fock matrix formation  ***
    1    -297.0138111590388235     0.00e+00  3.26e-02  1.78e-01  1.68e-01  0.850   0.4
Warning: op=0 Small HOMO/LUMO gap (   0.030) - skipping pre-diagonalization
         Will do a full diagonalization
    2    -297.1991344808334361    -1.85e-01  2.74e-02  1.33e-01  1.18e-01  0.850   0.4
                               ***Turning on AO-DIIS***
    3    -297.3109592510562607    -1.12e-01  1.41e-02  7.82e-02  6.78e-02  0.850   0.4
    4    -297.3746362008862434    -6.37e-02  1.02e-02  7.08e-02  4.69e-02  0.850   0.3
    5    -297.4178454512198186    -4.32e-02  8.88e-03  6.50e-02  3.64e-02  0.850   0.3
    6    -297.4505492928661852    -3.27e-02  7.94e-03  5.73e-02  3.02e-02  0.850   0.4
    7    -297.4767954058835358    -2.62e-02  7.10e-03  4.95e-02  2.57e-02  0.850   0.4
    8    -297.4985083272854354    -2.17e-02  4.18e-02  2.83e-01  2.19e-02  0.000   0.4
    9    -297.6148162709981762    -1.16e-01  7.04e-04  3.60e-03  1.09e-03  0.000   0.4
                              *** Initializing SOSCF ***
---------------------------------------S-O-S-C-F--------------------------------------
Iteration    Energy (Eh)           Delta-E    RMSDP     MaxDP     MaxGrad    Time(sec)
--------------------------------------------------------------------------------------
   10    -297.6148441319447784    -2.79e-05  4.02e-04  2.74e-03  2.21e-04     0.4
               *** Restarting incremental Fock matrix formation ***
   11    -297.6148483671435088    -4.24e-06  2.84e-04  1.84e-03  2.47e-04     0.4
   12    -297.6148497131962358    -1.35e-06  5.56e-05  3.59e-04  2.80e-05     0.3
   13    -297.6148497326445295    -1.94e-08  2.49e-05  1.58e-04  2.85e-05     0.4
   14    -297.6148497546679437    -2.20e-08  2.33e-05  1.48e-04  9.61e-06     0.3
   15    -297.6148497562359125    -1.57e-09  8.94e-06  6.40e-05  4.72e-06     0.4
                 **** Energy Check signals convergence ****

               *****************************************************
               *                     SUCCESS                       *
               *           SCF CONVERGED AFTER  15 CYCLES          *
               *****************************************************

             **** ENERGY FILE WAS UPDATED (hex_antiprism_nn1.60.en.tmp) ****

----------------
TOTAL SCF ENERGY
----------------

Total Energy       :       -297.61484975559642 Eh           -8098.51178 eV

Components:
Nuclear Repulsion  :        375.38895408927579 Eh           10214.85275 eV
Electronic Energy  :       -673.00380384487221 Eh          -18313.36454 eV
One Electron Energy:      -1139.68681501255583 Eh          -31012.45488 eV
Two Electron Energy:        466.68301116768356 Eh           12699.09034 eV

Virial components:
Potential Energy   :       -591.37184816736340 Eh          -16092.04609 eV
Kinetic Energy     :        293.75699841176697 Eh            7993.53431 eV
Virial Ratio       :          2.01313279807694

DFT components:
N(Alpha)           :       29.999782816246 electrons
N(Beta)            :       29.999782816246 electrons
N(Total)           :       59.999565632491 electrons
E(X)               :      -46.674853827470 Eh       
E(C)               :       -2.075840298474 Eh       
E(XC)              :      -48.750694125944 Eh       

---------------
SCF CONVERGENCE
---------------

  Last Energy change         ...    1.5680e-09  Tolerance :   1.0000e-08
  Last MAX-Density change    ...    6.3955e-05  Tolerance :   1.0000e-07
  Last RMS-Density change    ...    8.9448e-06  Tolerance :   5.0000e-09
  Last DIIS Error            ...    2.2113e-04  Tolerance :   5.0000e-07
  Last Orbital Gradient      ...    4.7172e-06  Tolerance :   1.0000e-05
  Last Orbital Rotation      ...    5.3848e-06  Tolerance :   1.0000e-05


----------------
ORBITAL ENERGIES
----------------

  NO   OCC          E(Eh)            E(eV) 
   0   2.0000      -6.556612      -178.4145 
   1   2.0000      -6.556442      -178.4098 
   2   2.0000      -6.556442      -178.4098 
   3   2.0000      -6.555897      -178.3950 
   4   2.0000      -6.555895      -178.3950 
   5   2.0000      -6.555361      -178.3804 
   6   2.0000      -6.555361      -178.3804 
   7   2.0000      -6.555274      -178.3781 
   8   2.0000      -6.555274      -178.3781 
   9   2.0000      -6.555244      -178.3773 
  10   2.0000      -6.555162      -178.3750 
  11   2.0000      -6.555161      -178.3750 
  12   2.0000      -0.710069       -19.3220 
  13   2.0000      -0.634338       -17.2612 
  14   2.0000      -0.634338       -17.2612 
  15   2.0000      -0.513806       -13.9814 
  16   2.0000      -0.513806       -13.9814 
  17   2.0000      -0.409846       -11.1525 
  18   2.0000      -0.383982       -10.4487 
  19   2.0000      -0.383982       -10.4487 
  20   2.0000      -0.350163        -9.5284 
  21   2.0000      -0.340642        -9.2693 
  22   2.0000      -0.340642        -9.2693 
  23   2.0000      -0.290027        -7.8920 
  24   2.0000      -0.290026        -7.8920 
  25   2.0000      -0.267615        -7.2822 
  26   2.0000      -0.260389        -7.0856 
  27   2.0000      -0.260389        -7.0856 
  28   2.0000      -0.189705        -5.1621 
  29   2.0000      -0.189705        -5.1621 
  30   0.0000      -0.129953        -3.5362 
  31   0.0000      -0.129953        -3.5362 
  32   0.0000      -0.117772        -3.2047 
  33   0.0000      -0.104840        -2.8528 
  34   0.0000      -0.104840        -2.8528 
  35   0.0000      -0.082655        -2.2492 
  36   0.0000      -0.082655        -2.2492 
  37   0.0000      -0.055278        -1.5042 
  38   0.0000      -0.055278        -1.5042 
  39   0.0000      -0.015292        -0.4161 
  40   0.0000      -0.015292        -0.4161 
*Only the first 10 virtual orbitals were printed.

                    ********************************
                    * MULLIKEN POPULATION ANALYSIS *
                    ********************************

-----------------------
MULLIKEN ATOMIC CHARGES
-----------------------
   0 B :   -0.000096
   1 B :    0.000048
   2 B :    0.000043
   3 B :   -0.000089
   4 B :    0.000043
   5 B :    0.000050
   6 B :    0.000047
   7 B :   -0.000093
   8 B :    0.000048
   9 B :    0.000041
  10 B :   -0.000086
  11 B :    0.000045
Sum of atomic charges:    0.0000000

--------------------------------
MULLIKEN REDUCED ORBITAL CHARGES
--------------------------------
  0 B s       :     2.669370  s :     2.669370
      pz      :     0.808330  p :     2.270788
      px      :     0.602633
      py      :     0.859825
      dz2     :     0.017448  d :     0.059939
      dxz     :     0.010586
      dyz     :     0.012211
      dx2y2   :     0.009209
      dxy     :     0.010484

  1 B s       :     2.669317  s :     2.669317
      pz      :     0.808321  p :     2.270698
      px      :     0.795499
      py      :     0.666878
      dz2     :     0.017448  d :     0.059938
      dxz     :     0.011805
      dyz     :     0.010992
      dx2y2   :     0.010166
      dxy     :     0.009526

  2 B s       :     2.669323  s :     2.669323
      pz      :     0.808320  p :     2.270696
      px      :     0.795498
      py      :     0.666878
      dz2     :     0.017448  d :     0.059938
      dxz     :     0.011805
      dyz     :     0.010992
      dx2y2   :     0.010166
      dxy     :     0.009526

  3 B s       :     2.669363  s :     2.669363
      pz      :     0.808331  p :     2.270787
      px      :     0.602633
      py      :     0.859823
      dz2     :     0.017448  d :     0.059939
      dxz     :     0.010586
      dyz     :     0.012211
      dx2y2   :     0.009209
      dxy     :     0.010484

  4 B s       :     2.669322  s :     2.669322
      pz      :     0.808320  p :     2.270697
      px      :     0.795499
      py      :     0.666879
      dz2     :     0.017448  d :     0.059938
      dxz     :     0.011805
      dyz     :     0.010992
      dx2y2   :     0.010166
      dxy     :     0.009526

  5 B s       :     2.669313  s :     2.669313
      pz      :     0.808321  p :     2.270699
      px      :     0.795500
      py      :     0.666878
      dz2     :     0.017448  d :     0.059938
      dxz     :     0.011805
      dyz     :     0.010992
      dx2y2   :     0.010166
      dxy     :     0.009526

  6 B s       :     2.669318  s :     2.669318
      pz      :     0.808320  p :     2.270697
      px      :     0.666878
      py      :     0.795499
      dz2     :     0.017448  d :     0.059938
      dxz     :     0.010992
      dyz     :     0.011805
      dx2y2   :     0.010166
      dxy     :     0.009526

  7 B s       :     2.669366  s :     2.669366
      pz      :     0.808331  p :     2.270788
      px      :     0.859823
      py      :     0.602633
      dz2     :     0.017448  d :     0.059939
      dxz     :     0.012211
      dyz     :     0.010586
      dx2y2   :     0.009209
      dxy     :     0.010484

  8 B s       :     2.669318  s :     2.669318
      pz      :     0.808320  p :     2.270697
      px      :     0.666878
      py      :     0.795498
      dz2     :     0.017448  d :     0.059938
      dxz     :     0.010992
      dyz     :     0.011805
      dx2y2   :     0.010166
      dxy     :     0.009526

  9 B s       :     2.669324  s :     2.669324
      pz      :     0.808320  p :     2.270697
      px      :     0.666879
      py      :     0.795498
      dz2     :     0.017448  d :     0.059938
      dxz     :     0.010992
      dyz     :     0.011805
      dx2y2   :     0.010166
      dxy     :     0.009526

 10 B s       :     2.669358  s :     2.669358
      pz      :     0.808331  p :     2.270790
      px      :     0.859824
      py      :     0.602634
      dz2     :     0.017448  d :     0.059939
      dxz     :     0.012211
      dyz     :     0.010586
      dx2y2   :     0.009209
      dxy     :     0.010484

 11 B s       :     2.669319  s :     2.669319
      pz      :     0.808320  p :     2.270698
      px      :     0.666879
      py      :     0.795499
      dz2     :     0.017448  d :     0.059938
      dxz     :     0.010992
      dyz     :     0.011805
      dx2y2   :     0.010166
      dxy     :     0.009526



                     *******************************
                     * LOEWDIN POPULATION ANALYSIS *
                     *******************************

----------------------
LOEWDIN ATOMIC CHARGES
----------------------
   0 B :   -0.000007
   1 B :    0.000003
   2 B :    0.000003
   3 B :   -0.000007
   4 B :    0.000003
   5 B :    0.000003
   6 B :    0.000003
   7 B :   -0.000007
   8 B :    0.000003
   9 B :    0.000003
  10 B :   -0.000007
  11 B :    0.000003

-------------------------------
LOEWDIN REDUCED ORBITAL CHARGES
-------------------------------
  0 B s       :     2.644964  s :     2.644964
      pz      :     0.849426  p :     2.201579
      px      :     0.517556
      py      :     0.834597
      dz2     :     0.045315  d :     0.153464
      dxz     :     0.018688
      dyz     :     0.036638
      dx2y2   :     0.024072
      dxy     :     0.028751

  1 B s       :     2.644966  s :     2.644966
      pz      :     0.849430  p :     2.201566
      px      :     0.755333
      py      :     0.596802
      dz2     :     0.045314  d :     0.153465
      dxz     :     0.032151
      dyz     :     0.023176
      dx2y2   :     0.027583
      dxy     :     0.025241

  2 B s       :     2.644966  s :     2.644966
      pz      :     0.849430  p :     2.201566
      px      :     0.755333
      py      :     0.596802
      dz2     :     0.045314  d :     0.153465
      dxz     :     0.032151
      dyz     :     0.023176
      dx2y2   :     0.027583
      dxy     :     0.025241

  3 B s       :     2.644964  s :     2.644964
      pz      :     0.849426  p :     2.201579
      px      :     0.517556
      py      :     0.834597
      dz2     :     0.045315  d :     0.153464
      dxz     :     0.018688
      dyz     :     0.036638
      dx2y2   :     0.024072
      dxy     :     0.028751

  4 B s       :     2.644966  s :     2.644966
      pz      :     0.849430  p :     2.201566
      px      :     0.755333
      py      :     0.596802
      dz2     :     0.045314  d :     0.153465
      dxz     :     0.032151
      dyz     :     0.023176
      dx2y2   :     0.027583
      dxy     :     0.025241

  5 B s       :     2.644966  s :     2.644966
      pz      :     0.849430  p :     2.201566
      px      :     0.755333
      py      :     0.596802
      dz2     :     0.045314  d :     0.153465
      dxz     :     0.032151
      dyz     :     0.023176
      dx2y2   :     0.027583
      dxy     :     0.025241

  6 B s       :     2.644966  s :     2.644966
      pz      :     0.849430  p :     2.201566
      px      :     0.596802
      py      :     0.755333
      dz2     :     0.045314  d :     0.153465
      dxz     :     0.023176
      dyz     :     0.032151
      dx2y2   :     0.027583
      dxy     :     0.025241

  7 B s       :     2.644964  s :     2.644964
      pz      :     0.849426  p :     2.201579
      px      :     0.834597
      py      :     0.517556
      dz2     :     0.045315  d :     0.153464
      dxz     :     0.036638
      dyz     :     0.018688
      dx2y2   :     0.024072
      dxy     :     0.028751

  8 B s       :     2.644966  s :     2.644966
      pz      :     0.849430  p :     2.201566
      px      :     0.596802
      py      :     0.755333
      dz2     :     0.045314  d :     0.153465
      dxz     :     0.023176
      dyz     :     0.032151
      dx2y2   :     0.027583
      dxy     :     0.025241

  9 B s       :     2.644966  s :     2.644966
      pz      :     0.849430  p :     2.201566
      px      :     0.596802
      py      :     0.755333
      dz2     :     0.045314  d :     0.153465
      dxz     :     0.023176
      dyz     :     0.032151
      dx2y2   :     0.027583
      dxy     :     0.025241

 10 B s       :     2.644964  s :     2.644964
      pz      :     0.849426  p :     2.201579
      px      :     0.834597
      py      :     0.517556
      dz2     :     0.045315  d :     0.153464
      dxz     :     0.036638
      dyz     :     0.018688
      dx2y2   :     0.024072
      dxy     :     0.028751

 11 B s       :     2.644966  s :     2.644966
      pz      :     0.849430  p :     2.201566
      px      :     0.596802
      py      :     0.755333
      dz2     :     0.045314  d :     0.153465
      dxz     :     0.023176
      dyz     :     0.032151
      dx2y2   :     0.027583
      dxy     :     0.025241



                      *****************************
                      * MAYER POPULATION ANALYSIS *
                      *****************************

  NA   - Mulliken gross atomic population
  ZA   - Total nuclear charge
  QA   - Mulliken gross atomic charge
  VA   - Mayer's total valence
  BVA  - Mayer's bonded valence
  FA   - Mayer's free valence

  ATOM       NA         ZA         QA         VA         BVA        FA
  0 B      5.0001     5.0000    -0.0001     4.2812     4.2812     0.0000
  1 B      5.0000     5.0000     0.0000     4.2812     4.2812     0.0000
  2 B      5.0000     5.0000     0.0000     4.2812     4.2812     0.0000
  3 B      5.0001     5.0000    -0.0001     4.2812     4.2812     0.0000
  4 B      5.0000     5.0000     0.0000     4.2812     4.2812     0.0000
  5 B      5.0000     5.0000     0.0000     4.2812     4.2812     0.0000
  6 B      5.0000     5.0000     0.0000     4.2812     4.2812     0.0000
  7 B      5.0001     5.0000    -0.0001     4.2812     4.2812     0.0000
  8 B      5.0000     5.0000     0.0000     4.2812     4.2812     0.0000
  9 B      5.0000     5.0000     0.0000     4.2812     4.2812     0.0000
 10 B      5.0001     5.0000    -0.0001     4.2812     4.2812     0.0000
 11 B      5.0000     5.0000     0.0000     4.2812     4.2812     0.0000

  Mayer bond orders larger than 0.100000
B(  0-B ,  1-B ) :   0.9692 B(  0-B ,  2-B ) :   0.1674 B(  0-B ,  4-B ) :   0.1674 
B(  0-B ,  5-B ) :   0.9692 B(  0-B ,  6-B ) :   0.7923 B(  0-B ,  7-B ) :   0.1536 
B(  0-B , 10-B ) :   0.1536 B(  0-B , 11-B ) :   0.7923 B(  1-B ,  2-B ) :   0.9691 
B(  1-B ,  3-B ) :   0.1674 B(  1-B ,  5-B ) :   0.1674 B(  1-B ,  6-B ) :   0.7923 
B(  1-B ,  7-B ) :   0.7923 B(  1-B ,  8-B ) :   0.1536 B(  1-B , 11-B ) :   0.1536 
B(  2-B ,  3-B ) :   0.9692 B(  2-B ,  4-B ) :   0.1674 B(  2-B ,  6-B ) :   0.1536 
B(  2-B ,  7-B ) :   0.7923 B(  2-B ,  8-B ) :   0.7923 B(  2-B ,  9-B ) :   0.1536 
B(  3-B ,  4-B ) :   0.9692 B(  3-B ,  5-B ) :   0.1674 B(  3-B ,  7-B ) :   0.1536 
B(  3-B ,  8-B ) :   0.7923 B(  3-B ,  9-B ) :   0.7923 B(  3-B , 10-B ) :   0.1536 
B(  4-B ,  5-B ) :   0.9691 B(  4-B ,  8-B ) :   0.1536 B(  4-B ,  9-B ) :   0.7923 
B(  4-B , 10-B ) :   0.7923 B(  4-B , 11-B ) :   0.1536 B(  5-B ,  6-B ) :   0.1536 
B(  5-B ,  9-B ) :   0.1536 B(  5-B , 10-B ) :   0.7923 B(  5-B , 11-B ) :   0.7923 
B(  6-B ,  7-B ) :   0.9692 B(  6-B ,  8-B ) :   0.1674 B(  6-B , 10-B ) :   0.1674 
B(  6-B , 11-B ) :   0.9691 B(  7-B ,  8-B ) :   0.9692 B(  7-B ,  9-B ) :   0.1674 
B(  7-B , 11-B ) :   0.1674 B(  8-B ,  9-B ) :   0.9691 B(  8-B , 10-B ) :   0.1674 
B(  9-B , 10-B ) :   0.9692 B(  9-B , 11-B ) :   0.1674 B( 10-B , 11-B ) :   0.9692 


-------
TIMINGS
-------

Total SCF time: 0 days 0 hours 0 min 6 sec 

Total time                  ....       6.897 sec
Sum of individual times     ....       6.432 sec  ( 93.3%)

SCF preparation             ....       0.689 sec  ( 10.0%)
Fock matrix formation       ....       5.036 sec  ( 73.0%)
  Startup                   ....       0.019 sec  (  0.4% of F)
  Split-RI-J                ....       1.701 sec  ( 33.8% of F)
  XC integration            ....       3.405 sec  ( 67.6% of F)
    XC Preparation          ....       0.000 sec  (  0.0% of XC)
    Basis function eval.    ....       0.703 sec  ( 20.7% of XC)
    Density eval.           ....       0.561 sec  ( 16.5% of XC)
    XC-Functional eval.     ....       0.088 sec  (  2.6% of XC)
    XC-Potential eval.      ....       0.733 sec  ( 21.5% of XC)
Diagonalization             ....       0.000 sec  (  0.0%)
Density matrix formation    ....       0.107 sec  (  1.6%)
Total Energy calculation    ....       0.090 sec  (  1.3%)
Population analysis         ....       0.038 sec  (  0.5%)
Orbital Transformation      ....       0.035 sec  (  0.5%)
Orbital Orthonormalization  ....       0.000 sec  (  0.0%)
DIIS solution               ....       0.256 sec  (  3.7%)
SOSCF solution              ....       0.182 sec  (  2.6%)
Finished LeanSCF after   6.9 sec

Maximum memory used throughout the entire LEANSCF-calculation: 10.2 MB


-------------------------------------------------------------------------------
                          DFT DISPERSION CORRECTION                            
                                                                               
                              DFTD3 V3.1  Rev 1                                
                          USING Becke-Johnson damping                          
-------------------------------------------------------------------------------
The BP86 functional is recognized
Active option DFTDOPT                   ...         4   

molecular C6(AA) [au] = 4056.287309 


            DFT-D V3
 parameters
 s6 scaling factor         :     1.0000 
 a1 scaling factor         :     0.3946 
 s8 scaling factor         :     3.2822 
 a2 scaling factor         :     4.8516 
 ad hoc parameters k1-k3   :    16.0000     1.3333    -4.0000 

 Edisp/kcal,au: -22.582290498375  -0.035987166765 
 E6   /kcal   :  -6.406166356 
 E8   /kcal   : -16.176124142 
 % E8         :  71.631901748 

-------------------------   ----------------
Dispersion correction           -0.035987167
-------------------------   ----------------


-------------------------   --------------------
FINAL SINGLE POINT ENERGY      -297.650836922361
-------------------------   --------------------



           ************************************************************
           *        Program running with 8 parallel MPI-processes     *
           *              working on a common directory               *
           ************************************************************
------------------------------------------------------------------------------
                         ORCA SCF GRADIENT CALCULATION
------------------------------------------------------------------------------

Nuc. rep. gradient        (SHARK) ... done (  0.0 sec)
HCore & Overlap gradient  (SHARK) ... done (  0.1 sec)
Split-RIJ-J gradient      (SHARK) ... done (  0.4 sec)
XC gradient                       ... done (  1.0 sec)
Dispersion correction             ... done (  0.1 sec)

-------------------
DISPERSION GRADIENT
-------------------

   1   B   :    0.000503302   -0.000000000    0.000112015
   2   B   :    0.000251651    0.000435873    0.000112015
   3   B   :   -0.000251651    0.000435873    0.000112015
   4   B   :   -0.000503302    0.000000000    0.000112015
   5   B   :   -0.000251651   -0.000435873    0.000112015
   6   B   :    0.000251651   -0.000435873    0.000112015
   7   B   :    0.000435873    0.000251651   -0.000112015
   8   B   :    0.000000000    0.000503302   -0.000112015
   9   B   :   -0.000435873    0.000251651   -0.000112015
  10   B   :   -0.000435873   -0.000251651   -0.000112015
  11   B   :    0.000000000   -0.000503302   -0.000112015
  12   B   :    0.000435873   -0.000251651   -0.000112015

Difference to translation invariance:
           :   -0.0000000000    0.0000000000    0.0000000000

Difference to rotation invariance:
           :   -0.0000000000   -0.0000000000    0.0000000000

Norm of the Dispersion gradient    ...    0.0017861492
RMS gradient                       ...    0.0002976915
MAX gradient                       ...    0.0005033024

------------------
CARTESIAN GRADIENT
------------------

   1   B   :    0.008654498   -0.000000003   -0.054071328
   2   B   :    0.004395446    0.007768765   -0.053946344
   3   B   :   -0.004395449    0.007768763   -0.053946351
   4   B   :   -0.008654493   -0.000000003   -0.054071326
   5   B   :   -0.004395450   -0.007768757   -0.053946347
   6   B   :    0.004395448   -0.007768762   -0.053946343
   7   B   :    0.007768760    0.004395447    0.053946345
   8   B   :   -0.000000000    0.008654494    0.054071327
   9   B   :   -0.007768761    0.004395453    0.053946350
  10   B   :   -0.007768767   -0.004395449    0.053946350
  11   B   :    0.000000002   -0.008654503    0.054071320
  12   B   :    0.007768765   -0.004395447    0.053946348

Difference to translation invariance:
           :   -0.0000000000    0.0000000000    0.0000000000

Difference to rotation invariance:
           :   -0.0000000038    0.0000000114   -0.0000000009

Norm of the Cartesian gradient     ...    0.1895085495
RMS gradient                       ...    0.0315847583
MAX gradient                       ...    0.0540713284

-------
TIMINGS
-------

Total SCF gradient time     ....        1.528 sec

Densities                   ....       0.001 sec  (  0.1%)
One electron gradient       ....       0.051 sec  (  3.3%)
RI-J Coulomb gradient       ....       0.400 sec  ( 26.2%)
XC gradient                 ....       1.020 sec  ( 66.7%)

Maximum memory used throughout the entire SCFGRAD-calculation: 29.8 MB
------------------------------------------------------------------------------
                         ORCA GEOMETRY RELAXATION STEP
------------------------------------------------------------------------------

Reading the OPT-File                    .... done
Getting information on internals        .... done
Copying old internal coords+grads       .... done
Making the new internal coordinates     .... (2022 redundants) done
Validating the new internal coordinates .... (2022 redundants) done
Calculating the B-matrix                .... done
Calculating the G,G- and P matrices     .... done
Transforming gradient to internals      .... done
Projecting the internal gradient        .... done
Number of atoms                         ....  12
Number of internal coordinates          .... 240
Current Energy                          ....  -297.650836922 Eh
Current gradient norm                   ....     0.189508550 Eh/bohr
Maximum allowed component of the step   ....  0.300
Current trust radius                    ....  0.300
Evaluating the initial hessian          ....  (Almloef) done
Projecting the Hessian                  .... done
Forming the augmented Hessian           .... done
Diagonalizing the augmented Hessian     .... done
Last element of RFO vector              ....  0.961268133
Lowest eigenvalues of augmented Hessian:
 -0.026649133  0.037749682  0.039098710  0.047358740  0.052315195
Length of the computed step             ....  0.286720113
The final length of the internal step   ....  0.286720113
Converting the step to Cartesian space:
 Initial RMS(Int)=    0.0185077037
Transforming coordinates:
 Iter   0:  RMS(Cart)=    0.0263290747 RMS(Int)=    0.0183925635
done
Storing new coordinates                 .... done

                                .--------------------.
          ----------------------|Geometry convergence|-------------------------
          Item                value                   Tolerance       Converged
          ---------------------------------------------------------------------
          RMS gradient        0.0060553266            0.0001000000      NO
          MAX gradient        0.0200685606            0.0003000000      NO
          RMS step            0.0185077037            0.0020000000      NO
          MAX step            0.0544490423            0.0040000000      NO
          -------------------------------------------------------------------------
          ........................................................
          Max(Bonds)      0.0288      Max(Angles)    1.87
          Max(Dihed)        1.18      Max(Improp)    0.00
          ---------------------------------------------------------------------

The optimization has not yet converged - more geometry cycles are needed


    ---------------------------------------------------------------------------
                         Redundant Internal Coordinates
                            (Angstroem and degrees)

        Definition                    Value    dE/dq     Step     New-Value
    ----------------------------------------------------------------------------
     1. B(B   1,B   0)                1.6791  0.005897 -0.0144    1.6648   
     2. B(B   2,B   1)                1.6791  0.005580 -0.0142    1.6649   
     3. B(B   3,B   2)                1.6791  0.005697 -0.0143    1.6649   
     4. B(B   4,B   3)                1.6791  0.005754 -0.0143    1.6649   
     5. B(B   5,B   4)                1.6791  0.005669 -0.0142    1.6649   
     6. B(B   5,B   0)                1.6791  0.005841 -0.0143    1.6649   
     7. B(B   6,B   0)                1.6000 -0.019724  0.0286    1.6286   
     8. B(B   6,B   1)                1.6000 -0.019551  0.0286    1.6286   
     9. B(B   7,B   6)                1.6791  0.006247 -0.0144    1.6647   
    10. B(B   7,B   2)                1.6000 -0.020069  0.0288    1.6288   
    11. B(B   7,B   1)                1.6000 -0.019697  0.0286    1.6286   
    12. B(B   8,B   7)                1.6791  0.005827 -0.0143    1.6648   
    13. B(B   8,B   3)                1.6000 -0.019938  0.0288    1.6288   
    14. B(B   8,B   2)                1.6000 -0.019238  0.0284    1.6284   
    15. B(B   9,B   3)                1.6000 -0.019159  0.0285    1.6285   
    16. B(B   9,B   8)                1.6791  0.005887 -0.0143    1.6649   
    17. B(B   9,B   4)                1.6000 -0.019924  0.0287    1.6287   
    18. B(B  10,B   9)                1.6791  0.006028 -0.0144    1.6648   
    19. B(B  10,B   5)                1.6000 -0.020051  0.0288    1.6288   
    20. B(B  10,B   4)                1.6000 -0.019073  0.0285    1.6285   
    21. B(B  11,B  10)                1.6791  0.006099 -0.0144    1.6648   
    22. B(B  11,B   6)                1.6791  0.005861 -0.0143    1.6648   
    23. B(B  11,B   5)                1.6000 -0.018598  0.0283    1.6283   
    24. B(B  11,B   0)                1.6000 -0.019540  0.0287    1.6287   
    25. A(B   1,B   0,B   5)          120.00  0.000003   -0.01    119.99   
    26. A(B   6,B   0,B  11)           63.30  0.010282   -1.87     61.43   
    27. A(B   5,B   0,B  11)           58.35 -0.004769    0.92     59.27   
    28. A(B   1,B   0,B   6)           58.35 -0.005102    0.93     59.28   
[...]
      pz      :     0.755800  p :     2.218743
      px      :     0.662691
      py      :     0.800252
      dz2     :     0.014556  d :     0.056182
      dxz     :     0.010542
      dyz     :     0.011611
      dx2y2   :     0.010427
      dxy     :     0.009046

  9 B s       :     2.725071  s :     2.725071
      pz      :     0.755802  p :     2.218964
      px      :     0.662920
      py      :     0.800242
      dz2     :     0.014555  d :     0.056177
      dxz     :     0.010542
      dyz     :     0.011612
      dx2y2   :     0.010422
      dxy     :     0.009046

 10 B s       :     2.725252  s :     2.725252
      pz      :     0.755491  p :     2.217977
      px      :     0.868930
      py      :     0.593555
      dz2     :     0.014547  d :     0.056150
      dxz     :     0.012132
      dyz     :     0.009984
      dx2y2   :     0.008379
      dxy     :     0.011108

 11 B s       :     2.724171  s :     2.724171
      pz      :     0.755786  p :     2.219300
      px      :     0.663100
      py      :     0.800414
      dz2     :     0.014559  d :     0.056185
      dxz     :     0.010544
      dyz     :     0.011609
      dx2y2   :     0.010426
      dxy     :     0.009047



                     *******************************
                     * LOEWDIN POPULATION ANALYSIS *
                     *******************************

----------------------
LOEWDIN ATOMIC CHARGES
----------------------
   0 B :   -0.000445
   1 B :    0.000229
   2 B :    0.000224
   3 B :   -0.000503
   4 B :    0.000232
   5 B :    0.000243
   6 B :    0.000370
   7 B :   -0.000516
   8 B :    0.000298
   9 B :    0.000186
  10 B :   -0.000350
  11 B :    0.000033

-------------------------------
LOEWDIN REDUCED ORBITAL CHARGES
-------------------------------
  0 B s       :     2.675188  s :     2.675188
      pz      :     0.791141  p :     2.182372
      px      :     0.523682
      py      :     0.867549
      dz2     :     0.040546  d :     0.142884
      dxz     :     0.016619
      dyz     :     0.034120
      dx2y2   :     0.021104
      dxy     :     0.030496

  1 B s       :     2.675351  s :     2.675351
      pz      :     0.791092  p :     2.181495
      px      :     0.781390
      py      :     0.609013
      dz2     :     0.040551  d :     0.142925
      dxz     :     0.029765
      dyz     :     0.021019
      dx2y2   :     0.028137
      dxy     :     0.023453

  2 B s       :     2.675333  s :     2.675333
      pz      :     0.791109  p :     2.181507
      px      :     0.781390
      py      :     0.609008
      dz2     :     0.040555  d :     0.142936
      dxz     :     0.029763
      dyz     :     0.021024
      dx2y2   :     0.028144
      dxy     :     0.023449

  3 B s       :     2.675146  s :     2.675146
      pz      :     0.791107  p :     2.182458
      px      :     0.523742
      py      :     0.867610
      dz2     :     0.040550  d :     0.142899
      dxz     :     0.016619
      dyz     :     0.034125
      dx2y2   :     0.021108
      dxy     :     0.030496

  4 B s       :     2.675342  s :     2.675342
      pz      :     0.791105  p :     2.181499
      px      :     0.781300
      py      :     0.609094
      dz2     :     0.040553  d :     0.142927
      dxz     :     0.029768
      dyz     :     0.021016
      dx2y2   :     0.028139
      dxy     :     0.023451

  5 B s       :     2.675320  s :     2.675320
      pz      :     0.791217  p :     2.181490
      px      :     0.781316
      py      :     0.608956
      dz2     :     0.040560  d :     0.142947
      dxz     :     0.029769
      dyz     :     0.021020
      dx2y2   :     0.028147
      dxy     :     0.023452

  6 B s       :     2.675380  s :     2.675380
      pz      :     0.791072  p :     2.181311
      px      :     0.608914
      py      :     0.781324
      dz2     :     0.040550  d :     0.142939
      dxz     :     0.021018
      dyz     :     0.029775
      dx2y2   :     0.028140
      dxy     :     0.023456

  7 B s       :     2.675173  s :     2.675173
      pz      :     0.791078  p :     2.182468
      px      :     0.867590
      py      :     0.523800
      dz2     :     0.040544  d :     0.142875
      dxz     :     0.034118
      dyz     :     0.016619
      dx2y2   :     0.021100
      dxy     :     0.030494

  8 B s       :     2.675360  s :     2.675360
      pz      :     0.791182  p :     2.181404
      px      :     0.608897
      py      :     0.781325
      dz2     :     0.040555  d :     0.142939
      dxz     :     0.021020
      dyz     :     0.029764
      dx2y2   :     0.028148
      dxy     :     0.023451

  9 B s       :     2.675314  s :     2.675314
      pz      :     0.791141  p :     2.181568
      px      :     0.609111
      py      :     0.781315
      dz2     :     0.040556  d :     0.142933
      dxz     :     0.021020
      dyz     :     0.029767
      dx2y2   :     0.028137
      dxy     :     0.023452

 10 B s       :     2.675198  s :     2.675198
      pz      :     0.791067  p :     2.182254
      px      :     0.867600
      py      :     0.523586
      dz2     :     0.040544  d :     0.142898
      dxz     :     0.034132
      dyz     :     0.016617
      dx2y2   :     0.021107
      dxy     :     0.030498

 11 B s       :     2.675222  s :     2.675222
      pz      :     0.791191  p :     2.181793
      px      :     0.609170
      py      :     0.781433
      dz2     :     0.040567  d :     0.142951
      dxz     :     0.021026
      dyz     :     0.029760
      dx2y2   :     0.028147
      dxy     :     0.023451



                      *****************************
                      * MAYER POPULATION ANALYSIS *
                      *****************************

  NA   - Mulliken gross atomic population
  ZA   - Total nuclear charge
  QA   - Mulliken gross atomic charge
  VA   - Mayer's total valence
  BVA  - Mayer's bonded valence
  FA   - Mayer's free valence

  ATOM       NA         ZA         QA         VA         BVA        FA
  0 B      4.9989     5.0000     0.0011     4.2256     4.2256    -0.0000
  1 B      5.0006     5.0000    -0.0006     4.2278     4.2278    -0.0000
  2 B      5.0005     5.0000    -0.0005     4.2278     4.2278    -0.0000
  3 B      4.9988     5.0000     0.0012     4.2259     4.2259    -0.0000
  4 B      5.0005     5.0000    -0.0005     4.2277     4.2277    -0.0000
  5 B      5.0008     5.0000    -0.0008     4.2281     4.2281    -0.0000
  6 B      5.0012     5.0000    -0.0012     4.2284     4.2284     0.0000
  7 B      4.9984     5.0000     0.0016     4.2252     4.2252     0.0000
  8 B      5.0010     5.0000    -0.0010     4.2282     4.2282     0.0000
  9 B      5.0002     5.0000    -0.0002     4.2275     4.2275     0.0000
 10 B      4.9994     5.0000     0.0006     4.2263     4.2263     0.0000
 11 B      4.9997     5.0000     0.0003     4.2274     4.2274     0.0000

  Mayer bond orders larger than 0.100000
B(  0-B ,  1-B ) :   1.0031 B(  0-B ,  2-B ) :   0.1775 B(  0-B ,  4-B ) :   0.1774 
B(  0-B ,  5-B ) :   1.0031 B(  0-B ,  6-B ) :   0.7540 B(  0-B ,  7-B ) :   0.1194 
B(  0-B , 10-B ) :   0.1195 B(  0-B , 11-B ) :   0.7538 B(  1-B ,  2-B ) :   1.0027 
B(  1-B ,  3-B ) :   0.1776 B(  1-B ,  5-B ) :   0.1788 B(  1-B ,  6-B ) :   0.7543 
B(  1-B ,  7-B ) :   0.7540 B(  1-B ,  8-B ) :   0.1195 B(  1-B , 11-B ) :   0.1193 
B(  2-B ,  3-B ) :   1.0029 B(  2-B ,  4-B ) :   0.1788 B(  2-B ,  6-B ) :   0.1193 
B(  2-B ,  7-B ) :   0.7538 B(  2-B ,  8-B ) :   0.7546 B(  2-B ,  9-B ) :   0.1195 
B(  3-B ,  4-B ) :   1.0031 B(  3-B ,  5-B ) :   0.1777 B(  3-B ,  7-B ) :   0.1194 
B(  3-B ,  8-B ) :   0.7537 B(  3-B ,  9-B ) :   0.7540 B(  3-B , 10-B ) :   0.1194 
B(  4-B ,  5-B ) :   1.0026 B(  4-B ,  8-B ) :   0.1194 B(  4-B ,  9-B ) :   0.7544 
B(  4-B , 10-B ) :   0.7540 B(  4-B , 11-B ) :   0.1194 B(  5-B ,  6-B ) :   0.1196 
B(  5-B ,  9-B ) :   0.1194 B(  5-B , 10-B ) :   0.7538 B(  5-B , 11-B ) :   0.7546 
B(  6-B ,  7-B ) :   1.0031 B(  6-B ,  8-B ) :   0.1790 B(  6-B , 10-B ) :   0.1780 
B(  6-B , 11-B ) :   1.0025 B(  7-B ,  8-B ) :   1.0031 B(  7-B ,  9-B ) :   0.1773 
B(  7-B , 11-B ) :   0.1773 B(  8-B ,  9-B ) :   1.0026 B(  8-B , 10-B ) :   0.1777 
B(  9-B , 10-B ) :   1.0031 B(  9-B , 11-B ) :   0.1785 B( 10-B , 11-B ) :   1.0030 


-------
TIMINGS
-------

Total SCF time: 0 days 0 hours 0 min 1 sec 

Total time                  ....       1.808 sec
Sum of individual times     ....       1.496 sec  ( 82.7%)

SCF preparation             ....       0.461 sec  ( 25.5%)
Fock matrix formation       ....       0.875 sec  ( 48.4%)
  Startup                   ....       0.006 sec  (  0.6% of F)
  Split-RI-J                ....       0.362 sec  ( 41.4% of F)
  XC integration            ....       0.723 sec  ( 82.6% of F)
    XC Preparation          ....       0.000 sec  (  0.0% of XC)
    Basis function eval.    ....       0.195 sec  ( 26.9% of XC)
    Density eval.           ....       0.155 sec  ( 21.4% of XC)
    XC-Functional eval.     ....       0.021 sec  (  2.9% of XC)
    XC-Potential eval.      ....       0.209 sec  ( 28.8% of XC)
Diagonalization             ....       0.000 sec  (  0.0%)
Density matrix formation    ....       0.011 sec  (  0.6%)
Total Energy calculation    ....       0.007 sec  (  0.4%)
Population analysis         ....       0.050 sec  (  2.8%)
Orbital Transformation      ....       0.032 sec  (  1.8%)
Orbital Orthonormalization  ....       0.000 sec  (  0.0%)
DIIS solution               ....       0.016 sec  (  0.9%)
SOSCF solution              ....       0.043 sec  (  2.4%)
Finished LeanSCF after   1.9 sec

Maximum memory used throughout the entire LEANSCF-calculation: 10.6 MB


-------------------------------------------------------------------------------
                          DFT DISPERSION CORRECTION                            
                                                                               
                              DFTD3 V3.1  Rev 1                                
                          USING Becke-Johnson damping                          
-------------------------------------------------------------------------------
The BP86 functional is recognized
Active option DFTDOPT                   ...         4   

molecular C6(AA) [au] = 4067.228686 


            DFT-D V3
 parameters
 s6 scaling factor         :     1.0000 
 a1 scaling factor         :     0.3946 
 s8 scaling factor         :     3.2822 
 a2 scaling factor         :     4.8516 
 ad hoc parameters k1-k3   :    16.0000     1.3333    -4.0000 

 Edisp/kcal,au: -22.785128781278  -0.036310410109 
 E6   /kcal   :  -6.462182482 
 E8   /kcal   : -16.322946300 
 % E8         :  71.638595753 

-------------------------   ----------------
Dispersion correction           -0.036310410
-------------------------   ----------------


-------------------------   --------------------
FINAL SINGLE POINT ENERGY      -297.694545740292
-------------------------   --------------------

                                *** OPTIMIZATION RUN DONE ***



           ************************************************************
           *        Program running with 8 parallel MPI-processes     *
           *              working on a common directory               *
           ************************************************************

------------------------------------------------------------------------------
                              ORCA PROPERTY CALCULATIONS
------------------------------------------------------------------------------

GBWName                                 ... hex_antiprism_nn1.60.gbw
Number of atoms                         ...     12
Number of basis functions               ...    168
Max core memory                         ...   2500 MB

Electric properties:
Dipole moment                           ... YES
Quadrupole moment                       ...  NO
Static polarizability (Dipole/Dipole)   ...  NO
Static polarizability (Dipole/Quad.)    ...  NO
Static polarizability (Quad./Quad.)     ...  NO
Static polarizability (Velocity)        ...  NO
Static hyperpolarizability              ...  NO

Atomic electric properties:
Dipole moment                           ...  NO
Quadrupole moment                       ...  NO
Static polarizability                   ...  NO

Choice of electric origin               ... Center of mass
Position of electric origin             ...     0.000000     0.000000    -0.000000

General magnetic properties:
Magnetizability                         ...  NO

EPR properties:
g-Tensor (aka g-matrix)                 ...  NO
Zero-Field splitting spin-orbit         ...  NO
Zero-field splitting spin-spin          ...  NO
Hyperfine couplings                     ...  NO (   0 nuclei)
Quadrupole couplings                    ...  NO (   0 nuclei)
Contact density                         ...  NO (   0 nuclei)

NMR properties:
Chemical shifts                         ...  NO (   0 nuclei)
Spin-rotation constants                 ...  NO (   0 nuclei)
Spin-spin couplings                     ...  NO (   0 nuclei,    0 pairs)

Choice of magnetic origin               ... GIAO
Position of magnetic origin             ...     0.000000     0.000000     0.000000

Properties with geometric perturbations:
SCF Hessian                             ...  NO
IR spectrum                             ...  NO
VCD spectrum                            ...  NO
X-ray spectroscopy properties:
SCF XES/XAS/RIXS spectra                ...  NO

SCF SOC stabilization energy            ...  NO
Diagonal Born-Oppenheimer correction    ...  NO

-------------
DIPOLE MOMENT
-------------

Method             : SCF
Type of density    : Electron Density
Multiplicity       :   1
Irrep              :   0
Energy             :  -297.6582353301822650 Eh
Basis              : AO
                                X                 Y                 Z
Electronic contribution:      0.000012814       0.000003182      -0.000159682
Nuclear contribution   :      0.000000000       0.000000000       0.000000000
                        -----------------------------------------
Total Dipole Moment    :      0.000012814       0.000003182      -0.000159682
                        -----------------------------------------
Magnitude (a.u.)       :      0.000160227
Magnitude (Debye)      :      0.000407265



--------------------
Rotational spectrum 
--------------------
 
Rotational constants in cm-1:             0.068516             0.068515             0.048303 
Rotational constants in MHz :          2054.052893          2054.031010          1448.086483 

Dipole components along the rotational axes: 
x,y,z [a.u.] :    -0.000005     0.000012    -0.000160 
x,y,z [Debye]:    -0.000012     0.000031    -0.000406 

 

Dipole moment calculation done in   0.0 sec 

Maximum memory used throughout the entire PROP-calculation: 8.2 MB

--------------------------------
SUGGESTED CITATIONS FOR THIS RUN
--------------------------------

Below you find a list of papers that are relevant to this ORCA run
We neither can nor want to force you to cite these papers, but we appreciate if you do
You receive ORCA, which is the product of decades of hard work by many enthusiastic individuals, for free
The only thing we kindly ask in return is that you cite our papers,
We deeply appreciate it, if you show your appreciation for ORCA by not just citing the generic ORCA reference.

Please note that relegating all ORCA citations to the supporting information does *not* help us.
SI sections are not indexed - citations you put there will not count into any citation statistics
But we need these citations in order to attract the funding resources that allow us to do what we are doing

Therefore, if you are a happy ORCA user, please consider citing a few of the papers listed below in the main body of your paper

In addition to the list printed below, the program has created the file hex_antiprism_nn1.60.bibtex that contains the list in bibtex format
You can import this file easily into all common literature databanks and citation aid programs

It goes without saying that in many instances, there are alternative algorithms to achieve similar
results as the ones you have gotten from ORCA. It is, of course, also the case that in some instances
ORCA just re-implements algorithms worked out by others. We are fully aware of that and we are also
fully appreciative of our colleagues work. Hence this citation list should not be read as indicating
that the listed papers, which are focused on our own work, are the only ones worth citing. It simply
meant to make it easier for users to cite ORCA specific papers. It is not a substitute for doing your
own literature research and citing the relevant literature in a scientifically appropriate manner.

List of essential papers. We consider these as the minimum necessary citations

  1. Neese, F.
     Software update: the ORCA program system, version 6.0
     WIRES Comput. Molec. Sci. 2025 15(1), e70019
     doi.org/10.1002/wcms.70019

List of papers to cite with high priority. The work reported in these papers was absolutely
necessary for this run to complete.
Our perspective: the developers of density functionals and basis sets usually get cited in chemistry papers
Good! But without the algorithms to do something with them, the functionals or basis sets would not do anything.
Hence, in our opinion, the algorithm design and method developments papers are equally worthy of getting cited

  1. Neese, F.
     An improvement of the resolution of the identity approximation for the formation of the Coulomb matrix
     J. Comp. Chem. 2003 24(14), 1740-1747
     doi.org/10.1002/jcc.10318
  2. Grimme, S.; Antony, J.; Ehrlich, S.; Krieg, H.
     A consistent and accurate ab initio parametrization of density functional dispersion correction (DFT-D) for the 94 elements H-Pu
     J. Chem. Phys. 2010 132 , 154104
     doi.org/10.1063/1.3382344
  3. Grimme, S.; Ehrlich, S.; Goerigk, L.
     Effect of the damping function in dispersion corrected density functional theory
     J. Comput. Chem. 2011 32(7), 1456-1465
     doi.org/10.1002/jcc.21759
  4. Neese, F.
     The SHARK Integral Generation and Digestion System
     J. Comp. Chem. 2022 44(3), 381
     doi.org/10.1002/jcc.26942

List of suggested additional citations. These are papers that are important in the 'surrounding' of 
of this run, or papers that preceded the highly important papers. If you like your results we are grateful for a citation.

  1. Neese, F.
     The ORCA program system
     WIRES Comput. Molec. Sci. 2012 2(1), 73-78
     doi.org/10.1002/wcms.81
  2. Neese, F.
     Software update: the ORCA program system, version 4.0
     WIRES Comput. Molec. Sci. 2018 8(1), 1-6
     doi.org/10.1002/wcms.1327
  3. Neese, F.; Wennmohs, F.; Becker, U.; Riplinger, C.
     The ORCA quantum chemistry program package
     J. Chem. Phys. 2020 152(22), 224108
     doi.org/10.1063/5.0004608
  4. Neese, F.
     Software update: The ORCA program system—Version 5.0
     WIRES Comput. Molec. Sci. 2022 12(1), e1606
     doi.org/10.1002/wcms.1606

List of optional additional citations

  1. Neese, F.
     Approximate second-order SCF convergence for spin unrestricted wavefunctions
     Chem. Phys. Lett. 2000 325(1-3), 93-98
     doi.org/10.1016/s0009-2614(00)00662-x

Timings for individual modules:

Sum of individual times          ...       69.338 sec (=   1.156 min)
Startup calculation              ...       12.364 sec (=   0.206 min)  17.8 %
SCF iterations                   ...       40.083 sec (=   0.668 min)  57.8 %
Property calculations            ...        0.706 sec (=   0.012 min)   1.0 %
SCF Gradient evaluation          ...       16.010 sec (=   0.267 min)  23.1 %
Geometry relaxation              ...        0.174 sec (=   0.003 min)   0.3 %
                             ****ORCA TERMINATED NORMALLY****
TOTAL RUN TIME: 0 days 0 hours 1 minutes 14 seconds 968 msec
