
                                 *****************
                                 * O   R   C   A *
                                 *****************

                                            #,                                       
                                            ###                                      
                                            ####                                     
                                            #####                                    
                                            ######                                   
                                           ########,                                 
                                     ,,################,,,,,                         
                               ,,#################################,,                 
                          ,,##########################################,,             
                       ,#########################################, ''#####,          
                    ,#############################################,,   '####,        
                  ,##################################################,,,,####,       
                ,###########''''           ''''###############################       
              ,#####''   ,,,,##########,,,,          '''####'''          '####       
            ,##' ,,,,###########################,,,                        '##       
           ' ,,###''''                  '''############,,,                           
         ,,##''                                '''############,,,,        ,,,,,,###''
      ,#''                                            '''#######################'''  
     '                                                          ''''####''''         
             ,#######,   #######,   ,#######,      ##                                
            ,#'     '#,  ##    ##  ,#'     '#,    #''#        ,####,    ,#,          
            ##       ##  ##   ,#'  ##            #'  '#       #'       ,# #          
            ##       ##  #######   ##           ,######,      #####,      #          
            '#,     ,#'  ##    ##  '#,     ,#' ,#      #,     #,   #      #          
             '#######'   ##     ##  '#######'  #'      '#     '####' #    #          



                #########################################################
                #                        -***-                          #
                #          Department of theory and spectroscopy        #
                #                                                       #
                #                      Frank Neese                      #
                #                                                       #
                #     Directorship, Architecture, Infrastructure        #
                #                    SHARK, DRIVERS                     #
                #        Core code/Algorithms in most modules           #
                #                                                       #
                #        Max Planck Institute fuer Kohlenforschung      #
                #                Kaiser Wilhelm Platz 1                 #
                #                 D-45470 Muelheim/Ruhr                 #
                #                      Germany                          #
                #                                                       #
                #                  All rights reserved                  #
                #                        -***-                          #
                #########################################################


                         Program Version 6.1.1  -  RELEASE   -
                                (GIT: $487d211c$)
                          ($2025-11-21 10:33:24 +0100$)
                                                                         
                                  - NO-DMRG VERSION -                    
                                                                         


 With contributions from (in alphabetic order):
[Max-Planck-Institut fuer Kohlenforschung]                               
  Daniel Aravena         : Magnetic Suceptibility                        
  Michael Atanasov       : Ab Initio Ligand Field Theory (pilot matlab implementation)
  Alexander A. Auer      : GIAO ZORA, VPT2 properties, NMR spectrum      
  Ute Becker             : All parallelization in ORCA, NUMFREQ, NUMCALC 
  Giovanni Bistoni       : ED, misc. LED, open-shell LED, HFLD           
  Dmytro Bykov           : pre 5.0 version of the SCF Hessian            
  Marcos Casanova-Páez   : Triplet and SCS-CIS(D). UHF-(DLPNO)-IP/EA/STEOM-CCSD. UHF-CVS-IP/STEOM-CCSD   
  Vijay G. Chilkuri      : MRCI spin determinant printing, contributions to CSF-ICE 
  Pauline Colinet        : FMM embedding                                 
  Dipayan Datta          : RHF DLPNO-CCSD density                        
  Achintya Kumar Dutta   : EOM-CC, STEOM-CC                              
  Nicolas Foglia         : Exact transition moments, OPA infrastructure, MCD improvements    
  Dmitry Ganyushin       : Spin-Orbit,Spin-Spin,Magnetic field MRCI      
  Miquel Garcia-Rates    : C-PCM and meta-GGA Hessian, CCSD/C-PCM, Gaussian charge scheme 
  Tiago L. C. Gouveia    : GS-ROHF, GS-ROCIS                             
  Yang Guo               : DLPNO-NEVPT2, F12-NEVPT2, CIM, IAO-localization        
  Andreas Hansen         : Spin unrestricted coupled pair/coupled cluster methods 
  Ingolf Harden          : AUTO-CI MPn and infrastructure                
  Benjamin Helmich-Paris : MC-RPA, TRAH-(SCF,CASSCF), AVAS, COSX integrals, SCF dyn. polar., MC-PDFT, srDFT 
  Lee Huntington         : MR-EOM, pCC                                   
  Robert Izsak           : Overlap fitted RIJCOSX, COSX-SCS-MP3, EOM     
  Riya Kayal             : Wick's Theorem for AUTO-CI, AUTO-CI UHF-CCSDT 
  Emily Kempfer          : AUTO-CI RHF CISDT and CCSDT, approximate NEVPT4
  Christian Kollmar      : KDIIS, OOCD, Brueckner-CCSD(T), CCSD density, CASPT2, CASPT2-K, improved NEVPT2 
  Axel Koslowski         : Symmetry handling                             
  Simone Kossmann        : meta-GGA functionals, TD-DFT gradient, OOMP2, (MP2 Hessian; deprecated post 5.0) 
  Lucas Lang             : DCDCAS, Hyperfine gauge corrections, ICE-SOC+SSC
  Marvin Lechner         : AUTO-CI (C++ implementation), FIC-MRCC        
  Spencer Leger          : CASSCF response                               
  Dagmar Lenk            : GEPOL surface, SMD, ORCA-2-JSON               
  Dimitrios Liakos       : Extrapolation schemes; Compound Job, Property file
  Dimitrios Manganas     : Further ROCIS development; embedding schemes. LFT, Crystal Embedding 
  Dimitrios Pantazis     : SARC Basis sets                               
  Anastasios Papadopoulos: AUTO-CI, single reference methods and gradients 
  Taras Petrenko         : pre 6.0 DFT Hessian and TD-DFT gradient,  ECA, NRVS 
  Petra Pikulova         : Analytic Raman intensities                    
  Peter Pinski           : DLPNO-MP2, DLPNO-MP2 Gradient                 
  Shashank Vittal Rao    : ES-AILFT, MagRelax                            
  Christoph Reimann      : Effective Core Potentials                     
  Marius Retegan         : Local ZFS, SOC                                
  Christoph Riplinger    : Optimizer, TS searches, QM/MM, DLPNO-CCSD(T), (RO)-DLPNO pert. Triples 
  Michael Roemelt        : Original ROCIS implementation, recursive CI coupling coefficients
  Masaaki Saitow         : Open-shell DLPNO-CCSD energy and density      
  Barbara Sandhoefer     : DKH picture change effects                    
  Yorick L. A. Schmerwitz: GMF and freeze-and-release deltaSCF, NEB S-IDPP initial path                    
  Kantharuban Sivalingam : CASSCF convergence/infrastructure, NEVPT2, NEVPT3, NEVPT4(SD), FIC-MRCI and CEPA variants
  Bernardo de Souza      : ESD, SOC TD-DFT                               
  Georgi L. Stoychev     : AutoAux, RI-MP2 NMR, DLPNO-MP2 response, X2C  
  Van Anh Tran           : RI-MP2 g-tensors                              
  Willem Van den Heuvel  : Paramagnetic NMR                              
  Zikuan Wang            : NOTCH, Electric field optimization            
  Frank Wennmohs         : Technical directorship and infrastructure     
  Hang Xu                : AUTO-CI-Response properties                   
                                                                         
[FACCTs GmbH]                                                            
  Markus Bursch, Nicolas Foglia, Miquel Garcia-Rates, Ingolf Harden, Hagen Neugebauer, Anastasios Papadopoulos, 
  Christoph Riplinger, Bernardo de Souza, Georgi L. Stoychev                                                    
                                                                 
  APM, various basis sets, CI-OPT, improved COSX, DLPNO-Multilevel,           
  DOCKER, DRACO, updates on ESD, Fragmentator, GOAT, IRC, LR-CPCM, L-BFGS, MBIS, meta-GGA TD-DFT gradient, ML-optimized integration grids, 
  MM, NACMEs, nearIR, NEB, NEB-TS, NL-DFT gradient (VV10), 2- and 3-layer-ONIOM, interface openCOSMO-RS, QMMM,   
  Crystal-QMMM, RESP, rigid body optimization, SF, symmetry and pop. for TD-DFT, various functionals, SOLVATOR                                   
                                                                         
[Other institutions]                                                     
  V. Asgeirsson          : NEB                                           
  Christoph Bannwarth    : sTDA-DFT, sTD-DFT, PBEh-3c, B97-3c, D3        
  Giovanni Bistoni       : ETS/NOCV, ADLD/ADEX, COVALED                  
  Martin Brehm           : Molecular dynamics                            
  Ronald Cardenas        : ETS/NOCV                                      
  Martina Colucci        : COVALED                                       
  Sebastian Ehlert       : rSCAN, r2SCAN, r2SCAN-3c, D4, dhf basis sets  
  Marvin Friede          : D4 for Fr, Ra, Ac-Lr                          
  Lars Goerigk           : TD-DFT with DH, B97 family of functionals     
  Stefan Grimme          : VdW corrections, initial TS optimization, DFT functionals, gCP, sTDA/sTD-DF 
  Waldemar Hujo          : DFT-NL                                        
  H. Jonsson             : NEB                                           
  Holger Kruse           : gCP                                           
  Marcel Mueller         : wB97X-3c, vDZP basis set                      
  Hagen Neugebauer       : wr2SCAN, Native XTB                           
  Gianluca Regni         : ADLD/ADEX                                     
  Tobias Risthaus        : pre 6.0 range-separated hybrid DFT and stability analysis
  Lukas Wittmann         : regularized MP2, r2SCAN double-hybrids, wr2SCAN        
                                                                         
We gratefully acknowledge several colleagues who have allowed us to      
interface, adapt or use parts of their codes:                            
  Ed Valeev, F. Pavosevic, A. Kumar             : LibInt (2-el integral package), F12 methods 
  Garnet Chan, S. Sharma, J. Yang, R. Olivares  : DMRG                   
  Ulf Ekstrom                                   : XCFun DFT Library      
  Mihaly Kallay                                 : mrcc  (arbitrary order and MRCC methods)
  Frank Weinhold                                : gennbo (NPA and NBO analysis)           
  Simon Mueller                                 : openCOSMO-RS                            
  Christopher J. Cramer and Donald G. Truhlar   : smd solvation model                     
  S Lehtola, MJT Oliveira, MAL Marques          : LibXC Library                           
  Liviu Ungur et al                             : ANISO software                          


 Your calculation uses the libint2 library for the computation of 2-el integrals
 For citations please refer to: http://libint.valeyev.net

 Your ORCA version has been built with support for libXC version: 7.0.0
 For citations please refer to: https://libxc.gitlab.io

 This ORCA versions uses:
   CBLAS   interface :  Fast vector & matrix operations
   LAPACKE interface :  Fast linear algebra routines
   SCALAPACK package :  Parallel linear algebra routines
   Shared memory     :  Shared parallel matrices
   BLAS/LAPACK       :  OpenBLAS 0.3.29  USE64BITINT DYNAMIC_ARCH NO_AFFINITY Zen SINGLE_THREADED
        Core in use  :  Zen
   Copyright (c) 2011-2014, The OpenBLAS Project


  ***********************************
  * Starting time: Thu Apr 23 20:16:47 2026
  * Host name:     vmi3233575
  * Process ID:    1460920
  * Working dir.:  /root/b12_scan/jobs/quasi_planar_nn2.00_perturb1
  ***********************************

NOTE: MaxCore=2500 MB was set to SCF,MP2,MDCI,CIPSI,MRCI,RASCI and CIS
      => If you want to overwrite this, your respective input block should be placed after the MaxCore statement
Your calculation utilizes the atom-pairwise dispersion correction
with the Becke-Johnson damping scheme (D3BJ)


================================================================================

----- Orbital basis set information -----
Your calculation utilizes the basis: def2-SVP
   F. Weigend and R. Ahlrichs, Phys. Chem. Chem. Phys. 7, 3297 (2005).

----- AuxJ basis set information -----
Your calculation utilizes the auxiliary basis: def2/J
   H-Rn: F. Weigend, Phys. Chem. Chem. Phys. 8, 1057 (2006).
   Fr-Lr: K. Eichkorn, F. Weigend, O. Treutler, R. Ahlrichs; Theor. Chem. Acc. 97, 119 (1997).

================================================================================
                                        WARNINGS
                       Please study these warnings very carefully!
================================================================================


WARNING: Geometry Optimization
  ===> : Switching off AutoStart
         For restart on a previous wavefunction, please use MOREAD

================================================================================
                                       INPUT FILE
================================================================================
NAME = quasi_planar_nn2.00_perturb1.inp
|  1> ! BP86 def2-SVP def2/J RI Opt TightSCF D3BJ
|  2> ! SlowConv
|  3> 
|  4> %pal nprocs 8 end
|  5> %maxcore 2500
|  6> 
|  7> %geom
|  8>   MaxIter 300
|  9> end
| 10> 
| 11> * xyz 0 1
| 12> B      1.20653817      0.12324272      0.36448389
| 13> B     -0.77282385      1.13580338      0.38187451
| 14> B     -0.65789325     -0.91283228      0.36960419
| 15> B      3.69981211      0.37105602     -0.02296583
| 16> B      2.45418482      2.60637668     -0.17729067
| 17> B      0.36341095      3.66980525     -0.14884129
| 18> B     -2.26278417      2.94394717     -0.10375145
| 19> B     -3.60201794      1.09975758      0.04603587
| 20> B     -3.71645090     -1.87834475     -0.13118859
| 21> B     -1.57352290     -3.31727224     -0.07237449
| 22> B      1.31370038     -3.70326429     -0.16161353
| 23> B      3.34260825     -1.97184873     -0.00551327
| 24> *
| 25> 
| 26>                          ****END OF INPUT****
================================================================================

                       *****************************
                       * Geometry Optimization Run *
                       *****************************

Geometry optimization settings:
Update method            Update   .... BFGS
Choice of coordinates    CoordSys .... (2022) Redundant Internals
Initial Hessian          InHess   .... Almloef's Model
Max. no of cycles        MaxIter  .... 300

Convergence Tolerances:
Energy Change            TolE     ....  5.0000e-06 Eh
Max. Gradient            TolMAXG  ....  3.0000e-04 Eh/bohr
RMS Gradient             TolRMSG  ....  1.0000e-04 Eh/bohr
Max. Displacement        TolMAXD  ....  4.0000e-03 bohr
RMS Displacement         TolRMSD  ....  2.0000e-03 bohr
Strict Convergence                .... False

------------------------------------------------------------------------------
                        ORCA OPTIMIZATION COORDINATE SETUP
------------------------------------------------------------------------------

The optimization will be done in redundant internal coordinates (2022)
Making redundant internal coordinates   ...  (2022 redundants) done
Evaluating the initial hessian          ...  (Almloef) done
Evaluating the coordinates              ...  done
Calculating the B-matrix                .... done
Calculating the G-matrix                .... done
The number of degrees of freedom        ....  186

    -----------------------------------------------------------------
                    Redundant Internal Coordinates


    -----------------------------------------------------------------
         Definition                    Initial Value    Approx d2E/dq
    -----------------------------------------------------------------
      1. B(B   1,B   0)                  2.2234         0.039242   
      2. B(B   2,B   0)                  2.1330         0.054702   
      3. B(B   2,B   1)                  2.0519         0.073682   
      4. B(B   3,B   0)                  2.5353         0.012476   
      5. B(B   4,B   3)                  2.5636         0.011245   
      6. B(B   4,B   0)                  2.8313         0.010000   
      7. B(B   5,B   1)                  2.8273         0.010000   
      8. B(B   5,B   4)                  2.3459         0.025025   
      9. B(B   6,B   1)                  2.3927         0.021065   
     10. B(B   6,B   5)                  2.7250         0.010000   
     11. B(B   7,B   1)                  2.8493         0.010000   
     12. B(B   7,B   6)                  2.2841         0.031400   
     13. B(B   8,B   2)                  3.2462         0.010000   
     14. B(B   8,B   7)                  2.9856         0.010000   
     15. B(B   9,B   2)                  2.6106         0.010000   
     16. B(B   9,B   8)                  2.5819         0.010515   
     17. B(B  10,B   2)                  3.4577         0.010000   
     18. B(B  10,B   9)                  2.9143         0.010000   
     19. B(B  11,B  10)                  2.6718         0.010000   
     20. B(B  11,B   0)                  3.0148         0.010000   
     21. B(B  11,B   3)                  2.3700         0.022897   
     22. A(B   1,B   0,B   4)           89.6782         0.151269   
     23. A(B   3,B   0,B  11)           49.6392         0.130243   
     24. A(B   4,B   0,B  11)          105.8890         0.121247   
     25. A(B   3,B   0,B   4)           56.7480         0.137043   
     26. A(B   1,B   0,B   2)           56.1536         0.200284   
     27. A(B   2,B   0,B  11)          106.3831         0.146629   
     28. A(B   2,B   0,B   3)          155.1541         0.174859   
     29. A(B   1,B   0,B   3)          146.3209         0.168641   
     30. A(B   2,B   0,B   4)          144.2584         0.156131   
     31. A(B   1,B   0,B  11)          161.4781         0.142456   
     32. A(B   2,B   1,B   5)          150.5977         0.161048   
     33. A(B   2,B   1,B   7)           92.4233         0.159745   
     34. A(B   2,B   1,B   6)          142.0125         0.192409   
     35. A(B   0,B   1,B   6)          153.7556         0.178667   
     36. A(B   6,B   1,B   7)           50.7524         0.142286   
     37. A(B   0,B   1,B   2)           59.6951         0.208045   
     38. A(B   0,B   1,B   7)          151.3166         0.150344   
     39. A(B   5,B   1,B   7)          112.8459         0.126126   
     40. A(B   5,B   1,B   6)           62.2816         0.143268   
     41. A(B   0,B   1,B   5)           92.8045         0.151473   
     42. A(B   9,B   2,B  10)           55.2978         0.115807   
     43. A(B   8,B   2,B  10)          105.8733         0.104802   
     44. A(B   0,B   2,B  10)           83.8703         0.128875   
     45. A(B   1,B   2,B  10)          146.9914         0.131656   
     46. A(B   8,B   2,B   9)           50.9108         0.120962   
     47. A(B   0,B   2,B   8)          165.3928         0.136544   
     48. A(B   1,B   2,B   8)          104.1880         0.139859   
     49. A(B   0,B   2,B   1)           64.1513         0.217340   
     50. A(B   0,B   2,B   9)          138.9000         0.169653   
     51. A(B   1,B   2,B   9)          154.2827         0.175278   
     52. A(B   0,B   3,B  11)           75.7611         0.159498   
     53. A(B   4,B   3,B  11)          142.1083         0.157861   
     54. A(B   0,B   3,B   4)           67.4555         0.149018   
     55. A(B   0,B   4,B   5)           90.1439         0.145241   
     56. A(B   3,B   4,B   5)          145.8528         0.159260   
     57. A(B   0,B   4,B   3)           55.7965         0.135927   
     58. A(B   4,B   5,B   6)          137.5943         0.150435   
     59. A(B   1,B   5,B   6)           51.0137         0.130167   
     60. A(B   1,B   5,B   4)           87.3728         0.145425   
     61. A(B   5,B   6,B   7)          141.3724         0.153673   
     62. A(B   1,B   6,B   5)           66.7048         0.148086   
     63. A(B   1,B   6,B   7)           75.0283         0.174254   
     64. A(B   1,B   7,B   8)           93.3063         0.121549   
     65. A(B   1,B   7,B   6)           54.2193         0.147325   
     66. A(B   6,B   7,B   8)          145.4845         0.141076   
     67. A(B   2,B   8,B   7)           70.0039         0.112400   
     68. A(B   2,B   8,B   9)           51.7011         0.121733   
     69. A(B   7,B   8,B   9)          121.5176         0.129654   
     70. A(B   8,B   9,B  10)          153.5599         0.132137   
     71. A(B   2,B   9,B  10)           77.2728         0.131120   
     72. A(B   2,B   9,B   8)           77.3881         0.144529   
     73. A(B   2,B  10,B   9)           47.4294         0.109824   
     74. A(B   2,B  10,B  11)           84.3213         0.114476   
     75. A(B   9,B  10,B  11)          131.6596         0.129028   
     76. A(B   0,B  11,B  10)           85.3811         0.125818   
     77. A(B   3,B  11,B  10)          138.9928         0.151935   
     78. A(B   0,B  11,B   3)           54.5997         0.136319   
     79. D(B   6,B   1,B   0,B  11)   -130.3657         0.010000   
     80. D(B   2,B   1,B   0,B   3)    164.5665         0.010000   
     81. D(B   7,B   1,B   0,B   2)    -14.9279         0.010000   
     82. D(B   2,B   1,B   0,B   4)    168.8302         0.010000   
     83. D(B   6,B   1,B   0,B   2)   -151.5154         0.010000   
     84. D(B   6,B   1,B   0,B   3)     13.0511         0.010000   
     85. D(B   6,B   1,B   0,B   4)     17.3148         0.010000   
     86. D(B   2,B   1,B   0,B  11)     21.1497         0.010000   
     87. D(B   9,B   2,B   0,B   4)    145.9920         0.010000   
     88. D(B   9,B   2,B   1,B   6)      2.4752         0.010000   
     89. D(B   9,B   2,B   0,B   1)    165.3596         0.010000   
     90. D(B   9,B   2,B   0,B   3)      5.9215         0.010000   
     91. D(B   9,B   2,B   1,B   5)   -134.6663         0.010000   
     92. D(B   1,B   2,B   0,B  11)   -173.1387         0.010000   
     93. D(B   9,B   2,B   0,B  11)     -7.7790         0.010000   
     94. D(B   0,B   2,B   1,B   5)     22.8203         0.010000   
     95. D(B   0,B   2,B   1,B   7)    172.8913         0.010000   
     96. D(B   9,B   2,B   1,B   7)     15.4047         0.010000   
     97. D(B   9,B   2,B   1,B   0)   -157.4866         0.010000   
     98. D(B   8,B   2,B   1,B   0)   -170.6126         0.010000   
     99. D(B   1,B   2,B   0,B   4)    -19.3677         0.010000   
    100. D(B   1,B   2,B   0,B   3)   -159.4381         0.010000   
    101. D(B   0,B   2,B   1,B   6)    159.9618         0.010000   
    102. D(B   8,B   2,B   0,B   1)     38.8318         0.010000   
    103. D(B   4,B   3,B   0,B  11)    170.7137         0.010000   
    104. D(B   4,B   3,B   0,B   2)    153.3636         0.010000   
    105. D(B  11,B   3,B   0,B   1)   -165.6133         0.010000   
    106. D(B  11,B   3,B   0,B   2)    -17.3502         0.010000   
    107. D(B  11,B   3,B   0,B   4)   -170.7137         0.010000   
    108. D(B   4,B   3,B   0,B   1)      5.1005         0.010000   
    109. D(B   3,B   4,B   0,B   2)   -161.1863         0.010000   
    110. D(B   5,B   4,B   3,B  11)     10.1021         0.010000   
    111. D(B   5,B   4,B   3,B   0)     -4.6518         0.010000   
    112. D(B   5,B   4,B   0,B   3)    177.3908         0.010000   
    113. D(B   0,B   4,B   3,B  11)     14.7539         0.010000   
    114. D(B   5,B   4,B   0,B   1)      0.2167         0.010000   
    115. D(B   5,B   4,B   0,B   2)     16.2045         0.010000   
    116. D(B   3,B   4,B   0,B  11)     -7.3450         0.010000   
    117. D(B   3,B   4,B   0,B   1)   -177.1741         0.010000   
    118. D(B   1,B   5,B   4,B   0)     -0.1706         0.010000   
    119. D(B   1,B   5,B   4,B   3)      3.6754         0.010000   
    120. D(B   6,B   5,B   4,B   3)     -6.5434         0.010000   
    121. D(B   6,B   5,B   1,B   0)    171.3634         0.010000   
    122. D(B   6,B   5,B   1,B   2)    151.7759         0.010000   
    123. D(B   6,B   5,B   4,B   0)    -10.3894         0.010000   
    124. D(B   4,B   5,B   1,B   6)   -171.1460         0.010000   
    125. D(B   4,B   5,B   1,B   0)      0.2174         0.010000   
    126. D(B   4,B   5,B   1,B   2)    -19.3700         0.010000   
    127. D(B   4,B   5,B   1,B   7)   -166.6242         0.010000   
    128. D(B   7,B   6,B   5,B   1)     -8.3479         0.010000   
    129. D(B   7,B   6,B   5,B   4)      4.8313         0.010000   
    130. D(B   1,B   6,B   5,B   4)     13.1792         0.010000   
    131. D(B   5,B   6,B   1,B   7)   -174.6168         0.010000   
    132. D(B   5,B   6,B   1,B   0)    -19.8271         0.010000   
    133. D(B   7,B   6,B   1,B   5)    174.6168         0.010000   
    134. D(B   7,B   6,B   1,B   0)    154.7898         0.010000   
    135. D(B   7,B   6,B   1,B   2)     16.7784         0.010000   
    136. D(B   5,B   6,B   1,B   2)   -157.8384         0.010000   
    137. D(B   8,B   7,B   1,B   0)     10.4558         0.010000   
    138. D(B   8,B   7,B   1,B   2)     -2.4061         0.010000   
    139. D(B   6,B   7,B   1,B   5)     -5.1705         0.010000   
    140. D(B   6,B   7,B   1,B   0)   -156.8946         0.010000   
    141. D(B   6,B   7,B   1,B   2)   -169.7564         0.010000   
    142. D(B   8,B   7,B   6,B   5)    -14.7614         0.010000   
    143. D(B   8,B   7,B   6,B   1)    -22.6955         0.010000   
    144. D(B   1,B   7,B   6,B   5)      7.9341         0.010000   
    145. D(B   8,B   7,B   1,B   6)    167.3504         0.010000   
    146. D(B   2,B   8,B   7,B   1)      1.6167         0.010000   
    147. D(B   2,B   8,B   7,B   6)     19.8890         0.010000   
    148. D(B   9,B   8,B   7,B   1)     -2.9688         0.010000   
    149. D(B   9,B   8,B   7,B   6)     15.3035         0.010000   
    150. D(B   7,B   8,B   2,B   9)   -175.0180         0.010000   
    151. D(B   7,B   8,B   2,B   0)    -37.9073         0.010000   
    152. D(B   7,B   8,B   2,B   1)     -2.3121         0.010000   
    153. D(B   9,B   8,B   2,B  10)      6.5017         0.010000   
    154. D(B   9,B   8,B   2,B   0)    137.1107         0.010000   
    155. D(B   9,B   8,B   2,B   1)    172.7059         0.010000   
    156. D(B  10,B   9,B   8,B   2)    -16.8713         0.010000   
    157. D(B  10,B   9,B   8,B   7)    -11.3780         0.010000   
    158. D(B   2,B   9,B   8,B   7)      5.4933         0.010000   
    159. D(B  10,B   9,B   2,B   8)    172.3871         0.010000   
    160. D(B  10,B   9,B   2,B   0)      7.5221         0.010000   
    161. D(B  10,B   9,B   2,B   1)    155.9083         0.010000   
    162. D(B   8,B   9,B   2,B  10)   -172.3871         0.010000   
    163. D(B   8,B   9,B   2,B   0)   -164.8650         0.010000   
    164. D(B   8,B   9,B   2,B   1)    -16.4788         0.010000   
    165. D(B  11,B  10,B   9,B   8)     12.5319         0.010000   
    166. D(B  11,B  10,B   9,B   2)     -4.3473         0.010000   
    167. D(B   9,B  10,B   2,B   0)   -175.0348         0.010000   
    168. D(B   9,B  10,B   2,B   1)   -161.0254         0.010000   
    169. D(B  11,B  10,B   2,B   8)    170.6007         0.010000   
    170. D(B  11,B  10,B   2,B   9)    176.7375         0.010000   
    171. D(B  11,B  10,B   2,B   0)      1.7027         0.010000   
    172. D(B   2,B  10,B   9,B   8)     16.8791         0.010000   
    173. D(B  11,B  10,B   2,B   1)     15.7121         0.010000   
    174. D(B   0,B  11,B  10,B   2)     -1.2016         0.010000   
    175. D(B   3,B  11,B  10,B   2)    -13.0646         0.010000   
    176. D(B   3,B  11,B  10,B   9)     -9.8487         0.010000   
    177. D(B  10,B  11,B   3,B   4)      0.5154         0.010000   
    178. D(B  10,B  11,B   3,B   0)     14.5591         0.010000   
    179. D(B   0,B  11,B   3,B   4)    -14.0437         0.010000   
    180. D(B  10,B  11,B   0,B   3)   -170.4749         0.010000   
    181. D(B  10,B  11,B   0,B   1)    -16.1799         0.010000   
    182. D(B  10,B  11,B   0,B   2)      2.0206         0.010000   
    183. D(B   3,B  11,B   0,B   4)      8.0656         0.010000   
    184. D(B   0,B  11,B  10,B   9)      2.0143         0.010000   
    185. D(B   3,B  11,B   0,B   1)    154.2950         0.010000   
    186. D(B   3,B  11,B   0,B   2)    172.4955         0.010000   
    -----------------------------------------------------------------

Number of atoms                         .... 12
Number of degrees of freedom            .... 186


         *************************************************************
         *                GEOMETRY OPTIMIZATION CYCLE   1            *
         *************************************************************
---------------------------------
CARTESIAN COORDINATES (ANGSTROEM)
---------------------------------
  B      1.206538    0.123243    0.364484
  B     -0.772824    1.135803    0.381875
  B     -0.657893   -0.912832    0.369604
  B      3.699812    0.371056   -0.022966
  B      2.454185    2.606377   -0.177291
  B      0.363411    3.669805   -0.148841
  B     -2.262784    2.943947   -0.103751
  B     -3.602018    1.099758    0.046036
  B     -3.716451   -1.878345   -0.131189
  B     -1.573523   -3.317272   -0.072374
  B      1.313700   -3.703264   -0.161614
  B      3.342608   -1.971849   -0.005513

----------------------------
CARTESIAN COORDINATES (A.U.)
----------------------------
  NO LB      ZA    FRAG     MASS         X           Y           Z
   0 B     5.0000    0    10.810    2.280027    0.232895    0.688775
   1 B     5.0000    0    10.810   -1.460425    2.146357    0.721638
   2 B     5.0000    0    10.810   -1.243238   -1.725003    0.698451
   3 B     5.0000    0    10.810    6.991632    0.701194   -0.043399
   4 B     5.0000    0    10.810    4.637737    4.925338   -0.335031
   5 B     5.0000    0    10.810    0.686747    6.934927   -0.281269
   6 B     5.0000    0    10.810   -4.276042    5.563254   -0.196062
   7 B     5.0000    0    10.810   -6.806827    2.078241    0.086995
   8 B     5.0000    0    10.810   -7.023074   -3.549557   -0.247911
   9 B     5.0000    0    10.810   -2.973527   -6.268736   -0.136768
  10 B     5.0000    0    10.810    2.482534   -6.998155   -0.305405
  11 B     5.0000    0    10.810    6.316614   -3.726254   -0.010419

--------------------------------
INTERNAL COORDINATES (ANGSTROEM)
--------------------------------
 B      0   0   0     0.000000000000     0.00000000     0.00000000
 B      1   0   0     2.223388299434     0.00000000     0.00000000
 B      2   1   0     2.051893679261    59.69510368     0.00000000
 B      1   2   3     2.535338962953   146.32093669   164.56645345
 B      4   1   2     2.563603314645    67.45548870     5.10047480
 B      5   4   1     2.345852737533   145.85277722   355.34817331
 B      2   1   3     2.392738659678   153.75558534   208.48462879
 B      7   2   1     2.284079371608    75.02825814   154.78975564
 B      8   7   2     2.985564753863   145.48450765   337.30452296
 B      9   8   7     2.581881452162   121.51755818    15.30351095
 B     10   9   8     2.914277223858   153.55990702   348.62201508
 B      4   1   2     2.370042585487    75.76110650   194.38672904

---------------------------
INTERNAL COORDINATES (A.U.)
---------------------------
 B      0   0   0     0.000000000000     0.00000000     0.00000000
 B      1   0   0     4.201594975296     0.00000000     0.00000000
 B      2   1   0     3.877517109728    59.69510368     0.00000000
 B      1   2   3     4.791096296641   146.32093669   164.56645345
 B      4   1   2     4.844508180691    67.45548870     5.10047480
 B      5   4   1     4.433019224446   145.85277722   355.34817331
 B      2   1   3     4.521620776837   153.75558534   208.48462879
 B      7   2   1     4.316284480478    75.02825814   154.78975564
 B      8   7   2     5.641899739889   145.48450765   337.30452296
 B      9   8   7     4.879048854838   121.51755818    15.30351095
 B     10   9   8     5.507185831416   153.55990702   348.62201508
 B      4   1   2     4.478731412301    75.76110650   194.38672904

---------------------
BASIS SET INFORMATION
---------------------
There are 1 groups of distinct atoms

 Group   1 Type B   : 7s4p1d contracted to 3s2p1d pattern {511/31/1}

Atom   0B    basis set group =>   1
Atom   1B    basis set group =>   1
Atom   2B    basis set group =>   1
Atom   3B    basis set group =>   1
Atom   4B    basis set group =>   1
Atom   5B    basis set group =>   1
Atom   6B    basis set group =>   1
Atom   7B    basis set group =>   1
Atom   8B    basis set group =>   1
Atom   9B    basis set group =>   1
Atom  10B    basis set group =>   1
Atom  11B    basis set group =>   1
---------------------------------
AUXILIARY/J BASIS SET INFORMATION
---------------------------------
There are 1 groups of distinct atoms

 Group   1 Type B   : 12s5p4d2f1g contracted to 6s4p3d1f1g pattern {711111/2111/211/2/1}

Atom   0B    basis set group =>   1
Atom   1B    basis set group =>   1
Atom   2B    basis set group =>   1
Atom   3B    basis set group =>   1
Atom   4B    basis set group =>   1
Atom   5B    basis set group =>   1
Atom   6B    basis set group =>   1
Atom   7B    basis set group =>   1
Atom   8B    basis set group =>   1
Atom   9B    basis set group =>   1
Atom  10B    basis set group =>   1
Atom  11B    basis set group =>   1


           ************************************************************
           *        Program running with 8 parallel MPI-processes     *
           *              working on a common directory               *
           ************************************************************
------------------------------------------------------------------------------
                             ORCA STARTUP CALCULATIONS
                           -- RI-GTO INTEGRALS CHOSEN --
------------------------------------------------------------------------------
------------------------------------------------------------------------------
                   ___                                                        
                  /   \      - P O W E R E D   B Y -                         
                 /     \                                                     
                 |  |  |   _    _      __       _____    __    __             
                 |  |  |  | |  | |    /  \     |  _  \  |  |  /  |          
                  \  \/   | |  | |   /    \    | | | |  |  | /  /          
                 / \  \   | |__| |  /  /\  \   | |_| |  |  |/  /          
                |  |  |   |  __  | /  /__\  \  |    /   |      \           
                |  |  |   | |  | | |   __   |  |    \   |  |\   \          
                \     /   | |  | | |  |  |  |  | |\  \  |  | \   \       
                 \___/    |_|  |_| |__|  |__|  |_| \__\ |__|  \__/        
                                                                              
                      - O R C A' S   B I G   F R I E N D -                    
                                      &                                       
                       - I N T E G R A L  F E E D E R -                       
                                                                              
 v1 FN, 2020, v2 2021, v3 2022-2024                                           
------------------------------------------------------------------------------


----------------------
SHARK INTEGRAL PACKAGE
----------------------

Number of atoms                             ...     12
Number of basis functions                   ...    168
Number of shells                            ...     72
Maximum angular momentum                    ...      2
Integral batch strategy                     ... SHARK/LIBINT Hybrid
RI-J (if used) integral strategy            ... SPLIT-RIJ (Revised 2003 algorithm where possible)
Printlevel                                  ...      1
Contraction scheme used                     ... SEGMENTED contraction
Prescreening option                         ... SCHWARTZ
   Thresh                                   ... 2.500e-11
   Tcut                                     ... 2.500e-12
   Tpresel                                  ... 2.500e-12 
Coulomb Range Separation                    ... NOT USED
Exchange Range Separation                   ... NOT USED
Multipole approximations                    ... NOT USED
Finite Nucleus Model                        ... NOT USED
CABS basis                                  ... NOT available
Auxiliary Coulomb fitting basis             ... AVAILABLE
   # of basis functions in Aux-J            ...    588
   # of shells in Aux-J                     ...    180
   Maximum angular momentum in Aux-J        ...      4
Auxiliary J/K fitting basis                 ... NOT available
Auxiliary Correlation fitting basis         ... NOT available
Auxiliary 'external' fitting basis          ... NOT available

Checking pre-screening integrals            ... done (  0.0 sec) Dimension = 72
   => SHARK Basis and OBASIS are compatible. Storing Pre-screening
Shell pair information
Shell pair cut-off parameter TPreSel        ...   2.5e-12
Total number of shell pairs                 ...      2628
Shell pairs after pre-screening             ...      2328
Total number of primitive shell pairs       ...     10596
Primitive shell pairs kept                  ...      6299
          la=0 lb=0:    570 shell pairs
          la=1 lb=0:    806 shell pairs
          la=1 lb=1:    290 shell pairs
          la=2 lb=0:    338 shell pairs
          la=2 lb=1:    264 shell pairs
          la=2 lb=2:     60 shell pairs

Checking whether 4 symmetric matrices of dimension 168 fit in memory
:Max Core in MB      =   2500.00
 MB in use           =      6.40
 MB left             =   2493.60
 MB needed           =      0.43
 Data fit in memory  = YES
Calculating RI/J V-Matrix + Cholesky decomp.... done (  0.0 sec)
Calculating Nuclear repulsion               ... done (  0.0 sec) ENN=    219.667947977022 Eh

Diagonalization of the overlap matrix:
Smallest eigenvalue                        ... 3.717e-03
Time for diagonalization                   ...    0.004 sec
Threshold for overlap eigenvalues          ... 1.000e-07
Number of eigenvalues below threshold      ... 0
Time for construction of square roots      ...    0.003 sec
Total time needed                          ...    0.009 sec

-------------------
DFT GRID GENERATION
-------------------

General Integration Accuracy     IntAcc      ... 4.388
Radial Grid Type                 RadialGrid  ... OptM3 with GC (2021)
Angular Grid (max. ang.)         AngularGrid ... 4 (Lebedev-302)
Angular grid pruning method      GridPruning ... 4 (adaptive)
Weight generation scheme         WeightScheme... mBecke (2022)
Basis function cutoff            BFCut       ... 1.0000e-11
Integration weight cutoff        WCut        ... 1.0000e-14
Partially contracted basis set               ... off
Rotationally invariant grid construction     ... off
Angular grids for H and He will be reduced by one unit

Total number of grid points                  ...    72826
Total number of batches                      ...     1143
Average number of points per batch           ...       63
Average number of grid points per atom       ...     6069
Grids setup in   0.8 sec
Initializing property integral containers    ... done (  0.0 sec)

SHARK setup successfully completed in   1.0 seconds

Maximum memory used throughout the entire STARTUP-calculation: 19.6 MB


           ************************************************************
           *        Program running with 8 parallel MPI-processes     *
           *              working on a common directory               *
           ************************************************************
-------------------------------------------------------------------------------
                                 ORCA GUESS
                   Start orbitals & Density for SCF / CASSCF
-------------------------------------------------------------------------------

------------
SCF SETTINGS
------------
Hamiltonian:
 Density Functional     Method          .... DFT(GTOs)
 Exchange Functional    Exchange        .... B88
   X-Alpha parameter    XAlpha          ....  0.666667
   Becke's b parameter  XBeta           ....  0.004200
 Correlation Functional Correlation     .... P86
 LDA part of GGA corr.  LDAOpt          .... PW91-LDA
 Gradients option       PostSCFGGA      .... off
   NL short-range parameter             ....  4.400000
 RI-approximation to the Coulomb term is turned on
   Number of AuxJ basis functions       .... 588


General Settings:
 Integral files         IntName         .... quasi_planar_nn2.00_perturb1
 Hartree-Fock type      HFTyp           .... RHF
 Total Charge           Charge          ....    0
 Multiplicity           Mult            ....    1
 Number of Electrons    NEL             ....   60
 Basis Dimension        Dim             ....  168
 Nuclear Repulsion      ENuc            ....    219.6679479770 Eh

Convergence Acceleration:
 AO-DIIS                CNVDIIS         .... on
   Start iteration      DIISMaxIt       ....     0
   Startup error        DIISStart       ....  0.200000
   # of expansion vecs  DIISMaxEq       ....     5
   Bias factor          DIISBfac        ....   1.050
   Max. coefficient     DIISMaxC        ....  10.000
 MO-DIIS                CNVKDIIS        .... off
 Trust-Rad. Augm. Hess. CNVTRAH         .... auto
   Auto Start mean grad. ratio tolernc. ....  1.125000
   Auto Start start iteration           ....    50
   Auto Start num. interpolation iter.  ....    10
   Max. Number of Micro iterations      ....    24
   Max. Number of Macro iterations      .... Maxiter - #DIIS iter
   Number of Davidson start vectors     ....     2
   Converg. threshold    (grad. norm)   ....   1.000e-05
   Grad. Scal. Fac. for Micro threshold ....   0.100
   Minimum threshold for Micro iter.    ....   1.000e-02
   NR start threshold (gradient norm)   ....   1.000e-04
   Initial trust radius                 ....   0.400
   Minimum AH scaling param. (alpha)    ....   1.000
   Maximum AH scaling param. (alpha)    .... 1000.000
   Quad. conv. algorithm                .... NR
   White noise on init. David. guess    .... on
   Maximum white noise                  ....   0.010
   Pseudo random numbers                .... off
   Inactive MOs                         .... canonical
   Orbital update algorithm             .... Taylor
   Preconditioner                       .... Diag
   Full preconditioner red. dimension   ....   250
 SOSCF                 CNVSOSCF           .... on
   Start iteration     SOSCFMaxIt         ....   150
   Startup grad/error  SOSCFStart         ....  0.001000
   Hessian update      SOSCFHessUp        .... L-BFGS
   Autom. constraints  SOSCFAutoConstrain .... off
 Level Shifting         CNVShift        .... on
   Level shift para.    LevelShift      ....    0.2500
   Turn off err/grad.   ShiftErr        ....    0.0000
 Zerner damping         CNVZerner       .... off
 Static damping         CNVDamp         .... on
   Fraction old density DampFac         ....    0.8500
   Max. Damping (<1)    DampMax         ....    0.9800
   Min. Damping (>=0)   DampMin         ....    0.0000
   Turn off err/grad.   DampErr         ....    0.0300

SCF Procedure:
 Maximum # iterations   MaxIter         ....   125
 SCF integral mode      SCFMode         .... Direct
   Integral package                     .... SHARK and LIBINT hybrid scheme
 Reset frequency        DirectResetFreq ....    20
 Integral Threshold     Thresh          ....  2.500e-11 Eh
 Primitive CutOff       TCut            ....  2.500e-12 Eh

Convergence Tolerance:
 Convergence Check Mode ConvCheckMode   .... Total+1el-Energy
 Convergence forced     ConvForced      .... 0
 Energy Change          TolE            ....  1.000e-08 Eh
 1-El. energy change                    ....  1.000e-05 Eh
 Orbital Gradient       TolG            ....  1.000e-05
 Orbital Rotation angle TolX            ....  1.000e-05
 DIIS Error             TolErr          ....  5.000e-07

------------------------------
INITIAL GUESS: MODEL POTENTIAL
------------------------------
Loading Hartree-Fock densities                     ... done
Calculating cut-offs                               ... done
Initializing the effective Hamiltonian             ... done
Setting up the integral package (SHARK)            ... done
Starting the Coulomb interaction                   ... done (   0.0 sec)
Making the grid                                    ... done (   0.2 sec)
Mapping shells                                     ... done
Starting the XC term evaluation                    ... done (   0.0 sec)
  promolecular density results
     # of electrons  =     60.000271502
     EX              =    -44.466259996
     EC              =     -1.739487563
     EX+EC           =    -46.205747560
Transforming the Hamiltonian                       ... done (   0.0 sec)
Diagonalizing the Hamiltonian                      ... done (   0.0 sec)
Back transforming the eigenvectors                 ... done (   0.0 sec)
Now organizing SCF variables                       ... done
                      ------------------
                      INITIAL GUESS DONE (   0.3 sec)
                      ------------------
             **** ENERGY FILE WAS UPDATED (quasi_planar_nn2.00_perturb1.en.tmp) ****
Finished Guess after   0.8 sec
Maximum memory used throughout the entire GUESS-calculation: 9.1 MB


           ************************************************************
           *        Program running with 8 parallel MPI-processes     *
           *              working on a common directory               *
           ************************************************************

-------------------------------------------------------------------------------------------
                                      ORCA LEAN-SCF
                              memory conserving SCF solver
-------------------------------------------------------------------------------------------

----------------------------------------D-I-I-S--------------------------------------------
Iteration    Energy (Eh)           Delta-E    RMSDP     MaxDP     DIISErr   Damp  Time(sec)
-------------------------------------------------------------------------------------------
               ***  Starting incremental Fock matrix formation  ***
    1    -295.9829309336029723     0.00e+00  7.40e-03  6.96e-02  1.23e-01  0.850   0.3
Warning: op=0 Small HOMO/LUMO gap (  -0.052) - skipping pre-diagonalization
         Will do a full diagonalization
    2    -296.1641812767394981    -1.81e-01  7.80e-03  6.76e-02  6.64e-02  0.850   0.2
                               ***Turning on AO-DIIS***
    3    -296.2092006971980140    -4.50e-02  4.94e-03  3.26e-02  2.16e-02  0.850   0.3
    4    -296.1772884144118620     3.19e-02  2.26e-02  1.34e-01  3.61e-02  0.000   0.3
    5    -295.5701857096108256     6.07e-01  1.13e-03  1.01e-02  2.51e-01  0.850   0.3
    6    -295.6233201424966524    -5.31e-02  1.76e-03  1.52e-02  2.45e-01  0.850   0.5
    7    -295.6991097015877017    -7.58e-02  2.08e-03  1.75e-02  2.35e-01  0.850   0.4
    8    -295.7787518919339504    -7.96e-02  2.71e-03  2.14e-02  2.23e-01  0.850   0.4
    9    -295.8649613048552851    -8.62e-02  6.93e-03  7.53e-02  2.06e-01  0.850   0.8
   10    -296.0599489762014969    -1.95e-01  4.77e-03  3.03e-02  1.37e-01  0.850   0.4
   11    -296.1614423679608876    -1.01e-01  3.36e-03  2.26e-02  8.61e-02  0.850   0.6
   12    -296.2148735898243217    -5.34e-02  2.56e-03  1.79e-02  5.17e-02  0.850   0.6
   13    -296.2434756564011309    -2.86e-02  1.96e-03  1.37e-02  2.83e-02  0.850   0.2
   14    -296.2583522872609478    -1.49e-02  1.02e-02  6.87e-02  1.28e-02  0.000   0.2
   15    -296.2487938053057519     9.56e-03  1.64e-03  1.07e-02  5.34e-02  0.000   0.2
   16    -296.2669256489120357    -1.81e-02  1.98e-04  1.39e-03  4.55e-02  0.850   0.3
   17    -296.2690043931413015    -2.08e-03  3.08e-04  1.76e-03  4.45e-02  0.850   0.2
   18    -296.2721968773517460    -3.19e-03  3.63e-04  1.87e-03  4.29e-02  0.850   0.2
   19    -296.2758457258384510    -3.65e-03  1.11e-03  1.08e-02  4.10e-02  0.850   0.3
   20    -296.2856518594456361    -9.81e-03  1.10e-03  7.48e-03  3.35e-02  0.850   0.7
               *** Restarting incremental Fock matrix formation ***
                             ****Resetting DIIS****
Warning: op=0 Small HOMO/LUMO gap (  -0.027) - skipping pre-diagonalization
         Will do a full diagonalization
   21    -296.2939060131270139    -8.25e-03  3.45e-03  3.00e-02  2.61e-02  0.850   0.4
   22    -296.2991881121598112    -5.28e-03  1.33e-02  1.09e-01  5.50e-03  0.000   0.4
   23    -296.1165882667118581     1.83e-01  4.35e-03  3.55e-02  1.15e-01  0.000   0.4
   24    -296.2201340047743656    -1.04e-01  3.89e-04  3.33e-03  8.47e-02  0.850   1.0
   25    -296.2275398208808497    -7.41e-03  5.82e-04  5.08e-03  8.14e-02  0.850   3.6
   26    -296.2379378648382158    -1.04e-02  7.35e-04  6.45e-03  7.64e-02  0.850   1.0
   27    -296.2496025638806145    -1.17e-02  2.11e-03  1.89e-02  7.05e-02  0.850   0.9
   28    -296.2705209873490162    -2.09e-02  1.81e-03  1.35e-02  4.88e-02  0.850   0.6
   29    -296.2872333161428173    -1.67e-02  1.47e-03  1.20e-02  3.41e-02  0.850   0.7
   30    -296.2962273176802341    -8.99e-03  1.11e-03  9.28e-03  2.34e-02  0.850   0.4
   31    -296.3008352082798069    -4.61e-03  5.85e-03  4.46e-02  1.48e-02  0.000   0.7
   32    -296.2963065731065058     4.53e-03  1.24e-03  1.09e-02  2.77e-02  0.000   0.5
   33    -296.3025731365591469    -6.27e-03  9.15e-04  6.42e-03  2.06e-02  0.000   0.5
   34    -296.3057583713192003    -3.19e-03  6.80e-04  4.70e-03  1.38e-02  0.000   0.4
   35    -296.3073975370478479    -1.64e-03  4.88e-04  2.80e-03  1.02e-02  0.000   0.5
   36    -296.3080932931822531    -6.96e-04  7.16e-04  5.35e-03  6.95e-03  0.000   0.6
   37    -296.3086874241722057    -5.94e-04  6.13e-04  6.18e-03  3.50e-03  0.000   0.6
   38    -296.3088717069558129    -1.84e-04  4.32e-04  3.72e-03  1.69e-03  0.000   0.6
   39    -296.3088972830293528    -2.56e-05  2.20e-04  2.23e-03  1.44e-03  0.000   0.8
                              *** Initializing SOSCF ***
---------------------------------------S-O-S-C-F--------------------------------------
Iteration    Energy (Eh)           Delta-E    RMSDP     MaxDP     MaxGrad    Time(sec)
--------------------------------------------------------------------------------------
   40    -296.3089437551082597    -4.65e-05  1.60e-04  1.48e-03  5.60e-04     0.8
               *** Restarting incremental Fock matrix formation ***
   41    -296.3089493067089393    -5.55e-06  4.02e-04  2.24e-03  4.58e-04     0.6
   42    -296.3088476728320870     1.02e-04  3.11e-04  1.59e-03  2.15e-03     0.4
   43    -296.3089590553456105    -1.11e-04  1.08e-04  9.02e-04  1.83e-04     0.3
   44    -296.3089571862091702     1.87e-06  8.05e-05  6.72e-04  3.42e-04     0.5
   45    -296.3089622334070441    -5.05e-06  1.26e-04  9.43e-04  1.42e-04     0.4
   46    -296.3089624262121902    -1.93e-07  1.12e-04  4.30e-04  2.35e-04     0.3
   47    -296.3089652613736575    -2.84e-06  1.89e-04  9.82e-04  1.07e-04     0.3
   48    -296.3089639354263340     1.33e-06  7.04e-05  5.96e-04  2.40e-04     0.2
   49    -296.3089677122199532    -3.78e-06  8.00e-05  5.40e-04  7.12e-05     0.2
   50    -296.3089681294977140    -4.17e-07  9.30e-05  4.04e-04  1.01e-04     0.6
   51    -296.3089689942545988    -8.65e-07  8.82e-05  3.59e-04  3.14e-05     0.3
   52    -296.3089692641396482    -2.70e-07  4.53e-05  1.80e-04  3.51e-05     0.3
   53    -296.3089693654774806    -1.01e-07  1.95e-05  1.18e-04  3.15e-05     0.5
   54    -296.3089694098794666    -4.44e-08  1.65e-05  9.58e-05  1.36e-05     0.5
   55    -296.3089694334582305    -2.36e-08  1.11e-05  4.32e-05  1.08e-05     0.3
   56    -296.3089694467983577    -1.33e-08  9.23e-06  4.60e-05  4.82e-06     0.3
   57    -296.3089694515261385    -4.73e-09  5.99e-06  2.28e-05  4.66e-06     0.2
                 **** Energy Check signals convergence ****

               *****************************************************
               *                     SUCCESS                       *
               *           SCF CONVERGED AFTER  57 CYCLES          *
               *****************************************************

             **** ENERGY FILE WAS UPDATED (quasi_planar_nn2.00_perturb1.en.tmp) ****

----------------
TOTAL SCF ENERGY
----------------

Total Energy       :       -296.30896945521243 Eh           -8062.97697 eV

Components:
Nuclear Repulsion  :        219.66794797702192 Eh            5977.46875 eV
Electronic Energy  :       -515.97691743223436 Eh          -14040.44573 eV
One Electron Energy:       -827.82787401363487 Eh          -22526.34167 eV
Two Electron Energy:        311.85095658140057 Eh            8485.89594 eV

Virial components:
Potential Energy   :       -587.85518834835273 Eh          -15996.35291 eV
Kinetic Energy     :        291.54621889314029 Eh            7933.37594 eV
Virial Ratio       :          2.01633617674808

DFT components:
N(Alpha)           :       29.999993778404 electrons
N(Beta)            :       29.999993778404 electrons
N(Total)           :       59.999987556808 electrons
E(X)               :      -44.680653341072 Eh       
E(C)               :       -1.777289587208 Eh       
E(XC)              :      -46.457942928280 Eh       

---------------
SCF CONVERGENCE
---------------

  Last Energy change         ...    4.7278e-09  Tolerance :   1.0000e-08
  Last MAX-Density change    ...    2.2786e-05  Tolerance :   1.0000e-07
  Last RMS-Density change    ...    5.9894e-06  Tolerance :   5.0000e-09
  Last DIIS Error            ...    5.6042e-04  Tolerance :   5.0000e-07
  Last Orbital Gradient      ...    4.6632e-06  Tolerance :   1.0000e-05
  Last Orbital Rotation      ...    1.1206e-04  Tolerance :   1.0000e-05


----------------
ORBITAL ENERGIES
----------------

  NO   OCC          E(Eh)            E(eV) 
   0   2.0000      -6.677026      -181.6911 
   1   2.0000      -6.675713      -181.6554 
   2   2.0000      -6.662168      -181.2868 
   3   2.0000      -6.660006      -181.2280 
   4   2.0000      -6.657380      -181.1565 
   5   2.0000      -6.654296      -181.0726 
   6   2.0000      -6.651086      -180.9853 
   7   2.0000      -6.642526      -180.7523 
   8   2.0000      -6.637312      -180.6104 
   9   2.0000      -6.627330      -180.3388 
  10   2.0000      -6.616490      -180.0439 
  11   2.0000      -6.616204      -180.0361 
  12   2.0000      -0.468907       -12.7596 
  13   2.0000      -0.424421       -11.5491 
  14   2.0000      -0.415444       -11.3048 
  15   2.0000      -0.404518       -11.0075 
  16   2.0000      -0.393175       -10.6988 
  17   2.0000      -0.373993       -10.1769 
  18   2.0000      -0.338696        -9.2164 
  19   2.0000      -0.329697        -8.9715 
  20   2.0000      -0.306920        -8.3517 
  21   2.0000      -0.290287        -7.8991 
  22   2.0000      -0.274409        -7.4671 
  23   2.0000      -0.266472        -7.2511 
  24   2.0000      -0.223144        -6.0720 
  25   2.0000      -0.210954        -5.7403 
  26   2.0000      -0.204847        -5.5742 
  27   2.0000      -0.202455        -5.5091 
  28   2.0000      -0.189448        -5.1551 
  29   2.0000      -0.181879        -4.9492 
  30   0.0000      -0.178227        -4.8498 
  31   0.0000      -0.172392        -4.6910 
  32   0.0000      -0.164137        -4.4664 
  33   0.0000      -0.157774        -4.2932 
  34   0.0000      -0.155774        -4.2388 
  35   0.0000      -0.155294        -4.2258 
  36   0.0000      -0.146840        -3.9957 
  37   0.0000      -0.144485        -3.9316 
  38   0.0000      -0.138933        -3.7805 
  39   0.0000      -0.121446        -3.3047 
  40   0.0000      -0.117623        -3.2007 
*Only the first 10 virtual orbitals were printed.

                    ********************************
                    * MULLIKEN POPULATION ANALYSIS *
                    ********************************

-----------------------
MULLIKEN ATOMIC CHARGES
-----------------------
   0 B :   -0.174672
   1 B :   -0.206203
   2 B :   -0.129391
   3 B :    0.026805
   4 B :    0.044499
   5 B :    0.064003
   6 B :    0.019809
   7 B :    0.066218
   8 B :    0.114801
   9 B :    0.006377
  10 B :    0.116743
  11 B :    0.051012
Sum of atomic charges:   -0.0000000

--------------------------------
MULLIKEN REDUCED ORBITAL CHARGES
--------------------------------
  0 B s       :     3.459898  s :     3.459898
      pz      :     0.402437  p :     1.701879
      px      :     0.683352
      py      :     0.616090
      dz2     :     0.001371  d :     0.012895
      dxz     :     0.001060
      dyz     :     0.000112
      dx2y2   :     0.005458
      dxy     :     0.004894

  1 B s       :     3.401450  s :     3.401450
      pz      :     0.432784  p :     1.790541
      px      :     0.643509
      py      :     0.714248
      dz2     :     0.001468  d :     0.014212
      dxz     :     0.000402
      dyz     :     0.000844
      dx2y2   :     0.005521
      dxy     :     0.005977

  2 B s       :     3.459136  s :     3.459136
      pz      :     0.328667  p :     1.656132
      px      :     0.642723
      py      :     0.684742
      dz2     :     0.001439  d :     0.014123
      dxz     :     0.000378
      dyz     :     0.001466
      dx2y2   :     0.005471
      dxy     :     0.005370

  3 B s       :     3.751286  s :     3.751286
      pz      :     0.158205  p :     1.212276
      px      :     0.483935
      py      :     0.570135
      dz2     :     0.001471  d :     0.009634
      dxz     :     0.000640
      dyz     :     0.000117
      dx2y2   :     0.004608
      dxy     :     0.002798

  4 B s       :     3.767660  s :     3.767660
      pz      :     0.155636  p :     1.180348
      px      :     0.581215
      py      :     0.443496
      dz2     :     0.001133  d :     0.007494
      dxz     :     0.000246
      dyz     :     0.000265
      dx2y2   :     0.002472
      dxy     :     0.003377

  5 B s       :     3.802371  s :     3.802371
      pz      :     0.144887  p :     1.126496
      px      :     0.541042
      py      :     0.440567
      dz2     :     0.001175  d :     0.007130
      dxz     :     0.000100
      dyz     :     0.000403
      dx2y2   :     0.002506
      dxy     :     0.002945

  6 B s       :     3.748814  s :     3.748814
      pz      :     0.196838  p :     1.220381
      px      :     0.494344
      py      :     0.529199
      dz2     :     0.001462  d :     0.010997
      dxz     :     0.000274
      dyz     :     0.001039
      dx2y2   :     0.002976
      dxy     :     0.005245

  7 B s       :     3.831048  s :     3.831048
      pz      :     0.138698  p :     1.095741
      px      :     0.374514
      py      :     0.582529
      dz2     :     0.001041  d :     0.006993
      dxz     :     0.000378
      dyz     :     0.000180
      dx2y2   :     0.002736
      dxy     :     0.002657

  8 B s       :     3.904073  s :     3.904073
      pz      :     0.051532  p :     0.977153
      px      :     0.411308
      py      :     0.514313
      dz2     :     0.000691  d :     0.003973
      dxz     :     0.000112
      dyz     :     0.000020
      dx2y2   :     0.001460
      dxy     :     0.001691

  9 B s       :     3.846867  s :     3.846867
      pz      :     0.071263  p :     1.140585
      px      :     0.521313
      py      :     0.548009
      dz2     :     0.001055  d :     0.006171
      dxz     :     0.000030
      dyz     :     0.000368
      dx2y2   :     0.002357
      dxy     :     0.002361

 10 B s       :     3.912271  s :     3.912271
      pz      :     0.046798  p :     0.967547
      px      :     0.533528
      py      :     0.387221
      dz2     :     0.000681  d :     0.003438
      dxz     :     0.000039
      dyz     :     0.000075
      dx2y2   :     0.000861
      dxy     :     0.001782

 11 B s       :     3.812366  s :     3.812366
      pz      :     0.125621  p :     1.130261
      px      :     0.434375
      py      :     0.570265
      dz2     :     0.000995  d :     0.006360
      dxz     :     0.000070
      dyz     :     0.000214
      dx2y2   :     0.002459
      dxy     :     0.002623



                     *******************************
                     * LOEWDIN POPULATION ANALYSIS *
                     *******************************

----------------------
LOEWDIN ATOMIC CHARGES
----------------------
   0 B :   -0.082867
   1 B :   -0.126926
   2 B :   -0.115459
   3 B :   -0.045462
   4 B :    0.058060
   5 B :    0.044726
   6 B :   -0.047763
   7 B :    0.072004
   8 B :    0.106735
   9 B :   -0.031410
  10 B :    0.108874
  11 B :    0.059489

-------------------------------
LOEWDIN REDUCED ORBITAL CHARGES
-------------------------------
  0 B s       :     3.190870  s :     3.190870
      pz      :     0.402538  p :     1.865111
      px      :     0.779072
      py      :     0.683502
      dz2     :     0.003800  d :     0.026886
      dxz     :     0.001419
      dyz     :     0.000146
      dx2y2   :     0.010739
      dxy     :     0.010782

  1 B s       :     3.120010  s :     3.120010
      pz      :     0.434113  p :     1.975284
      px      :     0.712731
      py      :     0.828440
      dz2     :     0.004261  d :     0.031633
      dxz     :     0.000607
      dyz     :     0.001271
      dx2y2   :     0.013236
      dxy     :     0.012258

  2 B s       :     3.191390  s :     3.191390
      pz      :     0.334846  p :     1.892315
      px      :     0.729759
      py      :     0.827709
      dz2     :     0.004664  d :     0.031754
      dxz     :     0.000504
      dyz     :     0.002098
      dx2y2   :     0.013623
      dxy     :     0.010866

  3 B s       :     3.554701  s :     3.554701
      pz      :     0.164106  p :     1.472109
      px      :     0.598053
      py      :     0.709949
      dz2     :     0.003291  d :     0.018652
      dxz     :     0.000925
      dyz     :     0.000169
      dx2y2   :     0.009753
      dxy     :     0.004513

  4 B s       :     3.584169  s :     3.584169
      pz      :     0.156158  p :     1.343251
      px      :     0.673499
      py      :     0.513594
      dz2     :     0.002562  d :     0.014520
      dxz     :     0.000292
      dyz     :     0.000353
      dx2y2   :     0.004168
      dxy     :     0.007144

  5 B s       :     3.635697  s :     3.635697
      pz      :     0.147200  p :     1.306159
      px      :     0.657794
      py      :     0.501164
      dz2     :     0.002529  d :     0.013418
      dxz     :     0.000142
      dyz     :     0.000503
      dx2y2   :     0.004707
      dxy     :     0.005537

  6 B s       :     3.525154  s :     3.525154
      pz      :     0.207123  p :     1.500417
      px      :     0.611813
      py      :     0.681480
      dz2     :     0.003517  d :     0.022193
      dxz     :     0.000520
      dyz     :     0.001580
      dx2y2   :     0.004461
      dxy     :     0.012114

  7 B s       :     3.660799  s :     3.660799
      pz      :     0.139687  p :     1.254063
      px      :     0.436828
      py      :     0.677548
      dz2     :     0.002317  d :     0.013135
      dxz     :     0.000476
      dyz     :     0.000251
      dx2y2   :     0.004230
      dxy     :     0.005861

  8 B s       :     3.802940  s :     3.802940
      pz      :     0.051412  p :     1.084018
      px      :     0.462609
      py      :     0.569997
      dz2     :     0.001182  d :     0.006307
      dxz     :     0.000123
      dyz     :     0.000022
      dx2y2   :     0.001916
      dxy     :     0.003063

  9 B s       :     3.696235  s :     3.696235
      pz      :     0.074267  p :     1.324639
      px      :     0.605118
      py      :     0.645254
      dz2     :     0.001992  d :     0.010537
      dxz     :     0.000051
      dyz     :     0.000533
      dx2y2   :     0.003787
      dxy     :     0.004173

 10 B s       :     3.822188  s :     3.822188
      pz      :     0.046762  p :     1.063574
      px      :     0.598604
      py      :     0.418208
      dz2     :     0.001147  d :     0.005364
      dxz     :     0.000051
      dyz     :     0.000082
      dx2y2   :     0.001247
      dxy     :     0.002837

 11 B s       :     3.649654  s :     3.649654
      pz      :     0.125451  p :     1.278816
      px      :     0.481280
      py      :     0.672084
      dz2     :     0.002202  d :     0.012041
      dxz     :     0.000091
      dyz     :     0.000256
      dx2y2   :     0.005095
      dxy     :     0.004398



                      *****************************
                      * MAYER POPULATION ANALYSIS *
                      *****************************

  NA   - Mulliken gross atomic population
  ZA   - Total nuclear charge
  QA   - Mulliken gross atomic charge
  VA   - Mayer's total valence
  BVA  - Mayer's bonded valence
  FA   - Mayer's free valence

  ATOM       NA         ZA         QA         VA         BVA        FA
  0 B      5.1747     5.0000    -0.1747     3.0951     3.0951    -0.0000
  1 B      5.2062     5.0000    -0.2062     3.1936     3.1936     0.0000
  2 B      5.1294     5.0000    -0.1294     2.9966     2.9966    -0.0000
  3 B      4.9732     5.0000     0.0268     2.1087     2.1087    -0.0000
  4 B      4.9555     5.0000     0.0445     2.0748     2.0748    -0.0000
  5 B      4.9360     5.0000     0.0640     1.9665     1.9665    -0.0000
  6 B      4.9802     5.0000     0.0198     2.1316     2.1316     0.0000
  7 B      4.9338     5.0000     0.0662     1.8884     1.8884    -0.0000
  8 B      4.8852     5.0000     0.1148     1.6091     1.6091    -0.0000
  9 B      4.9936     5.0000     0.0064     1.8640     1.8640     0.0000
 10 B      4.8833     5.0000     0.1167     1.5823     1.5823     0.0000
 11 B      4.9490     5.0000     0.0510     1.9329     1.9329    -0.0000

  Mayer bond orders larger than 0.100000
B(  0-B ,  1-B ) :   0.6785 B(  0-B ,  2-B ) :   0.7287 B(  0-B ,  3-B ) :   0.4982 
B(  0-B ,  4-B ) :   0.3177 B(  0-B ,  5-B ) :   0.1224 B(  0-B ,  7-B ) :   0.1154 
B(  0-B , 10-B ) :   0.1127 B(  0-B , 11-B ) :   0.2997 B(  1-B ,  2-B ) :   0.7813 
B(  1-B ,  4-B ) :   0.1444 B(  1-B ,  5-B ) :   0.3499 B(  1-B ,  6-B ) :   0.5424 
B(  1-B ,  7-B ) :   0.3139 B(  1-B , 11-B ) :   0.1119 B(  2-B ,  4-B ) :   0.1071 
B(  2-B ,  5-B ) :   0.1130 B(  2-B ,  8-B ) :   0.2356 B(  2-B ,  9-B ) :   0.5471 
B(  2-B , 10-B ) :   0.1774 B(  3-B ,  4-B ) :   0.4639 B(  3-B , 11-B ) :   0.5633 
B(  4-B ,  5-B ) :   0.5448 B(  4-B ,  9-B ) :   0.1028 B(  5-B ,  6-B ) :   0.3863 
B(  5-B ,  9-B ) :   0.1098 B(  6-B ,  7-B ) :   0.5742 B(  6-B , 10-B ) :   0.1034 
B(  6-B , 11-B ) :   0.1024 B(  7-B ,  8-B ) :   0.3402 B(  8-B ,  9-B ) :   0.4538 
B(  8-B , 10-B ) :   0.1093 B(  9-B , 10-B ) :   0.3333 B( 10-B , 11-B ) :   0.4386 


-------
TIMINGS
-------

Total SCF time: 0 days 0 hours 0 min 30 sec 

Total time                  ....      30.852 sec
Sum of individual times     ....      29.926 sec  ( 97.0%)

SCF preparation             ....       0.513 sec  (  1.7%)
Fock matrix formation       ....      22.374 sec  ( 72.5%)
  Startup                   ....       0.129 sec  (  0.6% of F)
  Split-RI-J                ....       5.852 sec  ( 26.2% of F)
  XC integration            ....      12.051 sec  ( 53.9% of F)
    XC Preparation          ....       0.000 sec  (  0.0% of XC)
    Basis function eval.    ....       2.008 sec  ( 16.7% of XC)
    Density eval.           ....       1.066 sec  (  8.8% of XC)
    XC-Functional eval.     ....       0.323 sec  (  2.7% of XC)
    XC-Potential eval.      ....       1.182 sec  (  9.8% of XC)
Diagonalization             ....       0.000 sec  (  0.0%)
Density matrix formation    ....       0.980 sec  (  3.2%)
Total Energy calculation    ....       0.594 sec  (  1.9%)
Population analysis         ....       0.328 sec  (  1.1%)
Orbital Transformation      ....       0.201 sec  (  0.7%)
Orbital Orthonormalization  ....       0.000 sec  (  0.0%)
DIIS solution               ....       3.859 sec  ( 12.5%)
SOSCF solution              ....       1.078 sec  (  3.5%)
Finished LeanSCF after  31.1 sec

Maximum memory used throughout the entire LEANSCF-calculation: 9.3 MB


-------------------------------------------------------------------------------
                          DFT DISPERSION CORRECTION                            
                                                                               
                              DFTD3 V3.1  Rev 1                                
                          USING Becke-Johnson damping                          
-------------------------------------------------------------------------------
The BP86 functional is recognized
Active option DFTDOPT                   ...         4   

molecular C6(AA) [au] = 14058.902133 


            DFT-D V3
 parameters
 s6 scaling factor         :     1.0000 
 a1 scaling factor         :     0.3946 
 s8 scaling factor         :     3.2822 
 a2 scaling factor         :     4.8516 
 ad hoc parameters k1-k3   :    16.0000     1.3333    -4.0000 

 Edisp/kcal,au: -34.595836259213  -0.055131968518 
 E6   /kcal   : -10.295898988 
 E8   /kcal   : -24.299937271 
 % E8         :  70.239485148 

-------------------------   ----------------
Dispersion correction           -0.055131969
-------------------------   ----------------


-------------------------   --------------------
FINAL SINGLE POINT ENERGY      -296.364101423731
-------------------------   --------------------



           ************************************************************
           *        Program running with 8 parallel MPI-processes     *
           *              working on a common directory               *
           ************************************************************
------------------------------------------------------------------------------
                         ORCA SCF GRADIENT CALCULATION
------------------------------------------------------------------------------

Nuc. rep. gradient        (SHARK) ... done (  0.0 sec)
HCore & Overlap gradient  (SHARK) ... done (  0.1 sec)
Split-RIJ-J gradient      (SHARK) ... done (  0.4 sec)
XC gradient                       ... done (  0.8 sec)
Dispersion correction             ... done (  0.1 sec)

-------------------
DISPERSION GRADIENT
-------------------

   1   B   :   -0.004358420   -0.000330385    0.000261265
   2   B   :    0.001598376   -0.002228630    0.000107229
   3   B   :    0.002701161    0.003158549    0.000349331
   4   B   :    0.000594392   -0.000261787    0.000020177
   5   B   :    0.000558975    0.000997505   -0.000136710
   6   B   :    0.000516071    0.001147433   -0.000157257
   7   B   :   -0.001012590   -0.000430615    0.000109899
   8   B   :   -0.000575859    0.001509005   -0.000105070
   9   B   :   -0.001061865   -0.000866312   -0.000140169
  10   B   :   -0.000593447   -0.000972452   -0.000068988
  11   B   :    0.000487103   -0.001476189   -0.000179312
  12   B   :    0.001146103   -0.000246122   -0.000060394

Difference to translation invariance:
           :    0.0000000000    0.0000000000   -0.0000000000

Difference to rotation invariance:
           :   -0.0000000000    0.0000000000    0.0000000000

Norm of the Dispersion gradient    ...    0.0076371695
RMS gradient                       ...    0.0012728616
MAX gradient                       ...    0.0043584199

------------------
CARTESIAN GRADIENT
------------------

   1   B   :    0.021620864   -0.001776860    0.008874493
   2   B   :   -0.006512550    0.024603998    0.011226275
   3   B   :   -0.011798776   -0.032285132    0.011157480
   4   B   :    0.042435256    0.009179476    0.000490416
   5   B   :    0.026221367    0.028841407   -0.007339303
   6   B   :    0.001362403    0.039258371   -0.003854541
   7   B   :   -0.023438685    0.042526954   -0.005913610
   8   B   :   -0.038578273   -0.008417604   -0.000895131
   9   B   :   -0.033889159   -0.008113534   -0.003908920
  10   B   :   -0.008178041   -0.037709225   -0.003896988
  11   B   :    0.004273027   -0.025286325   -0.002737047
  12   B   :    0.026482567   -0.030821528   -0.003203125

Difference to translation invariance:
           :    0.0000000000    0.0000000000   -0.0000000000

Difference to rotation invariance:
           :   -0.0000058116    0.0000158170   -0.0000127064

Norm of the Cartesian gradient     ...    0.1290690052
RMS gradient                       ...    0.0215115009
MAX gradient                       ...    0.0425269544

-------
TIMINGS
-------

Total SCF gradient time     ....        1.358 sec

Densities                   ....       0.002 sec  (  0.1%)
One electron gradient       ....       0.064 sec  (  4.7%)
RI-J Coulomb gradient       ....       0.437 sec  ( 32.2%)
XC gradient                 ....       0.767 sec  ( 56.5%)

Maximum memory used throughout the entire SCFGRAD-calculation: 29.1 MB
------------------------------------------------------------------------------
                         ORCA GEOMETRY RELAXATION STEP
------------------------------------------------------------------------------

Reading the OPT-File                    .... done
Getting information on internals        .... done
Copying old internal coords+grads       .... done
Making the new internal coordinates     .... (2022 redundants) done
Validating the new internal coordinates .... (2022 redundants) done
Calculating the B-matrix                .... done
Calculating the G,G- and P matrices     .... done
Transforming gradient to internals      .... done
Projecting the internal gradient        .... done
Number of atoms                         ....  12
Number of internal coordinates          .... 186
Current Energy                          ....  -296.364101424 Eh
Current gradient norm                   ....     0.129069005 Eh/bohr
Maximum allowed component of the step   ....  0.300
Current trust radius                    ....  0.300
Evaluating the initial hessian          ....  (Almloef) done
Projecting the Hessian                  .... done
Forming the augmented Hessian           .... done
Diagonalizing the augmented Hessian     .... done
Last element of RFO vector              ....  0.741534302
Lowest eigenvalues of augmented Hessian:
 -0.112105706  0.010127327  0.010170796  0.010273170  0.010362061
Length of the computed step             ....  0.904765909
Warning: the length of the step is outside the trust region - taking restricted step instead
The input lambda is                     ....     0.009127
   iter:   5  x=   -0.006818  g= 9025.060407 f(x)=    57.234617
   iter:  10  x=   -0.144637  g=   19.811303 f(x)=     1.037228
   iter:  15  x=   -0.388077  g=    0.443065 f(x)=     0.001361
The output lambda is                    ....    -0.388112 (18 iterations)
The final length of the internal step   ....  0.300000000
Converting the step to Cartesian space:
 Initial RMS(Int)=    0.0219970673
Transforming coordinates:
 Iter   0:  RMS(Cart)=    0.0500601952 RMS(Int)=    0.0219896943
done
Storing new coordinates                 .... done

                                .--------------------.
          ----------------------|Geometry convergence|-------------------------
          Item                value                   Tolerance       Converged
          ---------------------------------------------------------------------
          RMS gradient        0.0091742024            0.0001000000      NO
          MAX gradient        0.0411657750            0.0003000000      NO
          RMS step            0.0219970673            0.0020000000      NO
          MAX step            0.0921703359            0.0040000000      NO
          -------------------------------------------------------------------------
          ........................................................
          Max(Bonds)      0.0488      Max(Angles)    0.72
          Max(Dihed)        0.31      Max(Improp)    0.00
          ---------------------------------------------------------------------

The optimization has not yet converged - more geometry cycles are needed


    ---------------------------------------------------------------------------
                         Redundant Internal Coordinates
                            (Angstroem and degrees)

        Definition                    Value    dE/dq     Step     New-Value
    ----------------------------------------------------------------------------
     1. B(B   1,B   0)                2.2234  0.040114 -0.0488    2.1746   
     2. B(B   2,B   0)                2.1330  0.039128 -0.0472    2.0858   
     3. B(B   2,B   1)                2.0519  0.041166 -0.0487    2.0032   
     4. B(B   3,B   0)                2.5353  0.022282 -0.0295    2.5058   
     5. B(B   4,B   3)                2.5636  0.026833 -0.0348    2.5288   
     6. B(B   4,B   0)                2.8313  0.024027 -0.0323    2.7990   
     7. B(B   5,B   1)                2.8273  0.021430 -0.0291    2.7982   
     8. B(B   5,B   4)                2.3459  0.034772 -0.0442    2.3017   
     9. B(B   6,B   1)                2.3927  0.026036 -0.0336    2.3592   
    10. B(B   6,B   5)                2.7250  0.023794 -0.0312    2.6939   
    11. B(B   7,B   1)                2.8493  0.023041 -0.0310    2.8182   
    12. B(B   7,B   6)                2.2841  0.031570 -0.0389    2.2452   
    13. B(B   8,B   2)                3.2462  0.016951 -0.0239    3.2223   
    14. B(B   8,B   7)                2.9856  0.021755 -0.0282    2.9573   
    15. B(B   9,B   2)                2.6106  0.024017 -0.0311    2.5795   
    16. B(B   9,B   8)                2.5819  0.021792 -0.0284    2.5534   
    17. B(B  10,B   2)                3.4577  0.013847 -0.0196    3.4381   
    18. B(B  10,B   9)                2.9143  0.015888 -0.0206    2.8937   
    19. B(B  11,B  10)                2.6718  0.024955 -0.0329    2.6389   
    20. B(B  11,B   0)                3.0148  0.020795 -0.0281    2.9867   
    21. B(B  11,B   3)                2.3700  0.030200 -0.0380    2.3321   
    22. A(B   1,B   0,B   4)           89.68 -0.001505    0.17     89.85   
    23. A(B   3,B   0,B  11)           49.64  0.002729   -0.34     49.30   
    24. A(B   4,B   0,B  11)          105.89  0.003690   -0.45    105.44   
    25. A(B   3,B   0,B   4)           56.75  0.001081   -0.13     56.62   
[...]

  6 B s       :     3.364385  s :     3.364385
      pz      :     0.438665  p :     1.860778
      px      :     0.739240
      py      :     0.682873
      dz2     :     0.003858  d :     0.044720
      dxz     :     0.007283
      dyz     :     0.005453
      dx2y2   :     0.014277
      dxy     :     0.013849

  7 B s       :     3.193868  s :     3.193868
      pz      :     0.438428  p :     1.573245
      px      :     0.563879
      py      :     0.570937
      dz2     :     0.003371  d :     0.047666
      dxz     :     0.006780
      dyz     :     0.006804
      dx2y2   :     0.015466
      dxy     :     0.015245

  8 B s       :     3.364698  s :     3.364698
      pz      :     0.438479  p :     1.860704
      px      :     0.622955
      py      :     0.799270
      dz2     :     0.003851  d :     0.044723
      dxz     :     0.009541
      dyz     :     0.003194
      dx2y2   :     0.014873
      dxy     :     0.013263

  9 B s       :     3.364792  s :     3.364792
      pz      :     0.438651  p :     1.860921
      px      :     0.816691
      py      :     0.605579
      dz2     :     0.003882  d :     0.044753
      dxz     :     0.003033
      dyz     :     0.009727
      dx2y2   :     0.014689
      dxy     :     0.013422

 10 B s       :     3.194320  s :     3.194320
      pz      :     0.439796  p :     1.571329
      px      :     0.567772
      py      :     0.563761
      dz2     :     0.003406  d :     0.047739
      dxz     :     0.006861
      dyz     :     0.006808
      dx2y2   :     0.015394
      dxy     :     0.015271

 11 B s       :     3.364697  s :     3.364697
      pz      :     0.439484  p :     1.860447
      px      :     0.661185
      py      :     0.759777
      dz2     :     0.003893  d :     0.044693
      dxz     :     0.006010
      dyz     :     0.006783
      dx2y2   :     0.013954
      dxy     :     0.014051



                     *******************************
                     * LOEWDIN POPULATION ANALYSIS *
                     *******************************

----------------------
LOEWDIN ATOMIC CHARGES
----------------------
   0 B :   -0.058199
   1 B :   -0.058128
   2 B :   -0.058423
   3 B :   -0.000459
   4 B :    0.059197
   5 B :   -0.000533
   6 B :   -0.000857
   7 B :    0.059821
   8 B :   -0.000647
   9 B :   -0.000537
  10 B :    0.059101
  11 B :   -0.000337

-------------------------------
LOEWDIN REDUCED ORBITAL CHARGES
-------------------------------
  0 B s       :     2.558727  s :     2.558727
      pz      :     0.654539  p :     2.277584
      px      :     0.838092
      py      :     0.784953
      dz2     :     0.021134  d :     0.221888
      dxz     :     0.025765
      dyz     :     0.025488
      dx2y2   :     0.080716
      dxy     :     0.068785

  1 B s       :     2.558662  s :     2.558662
      pz      :     0.653860  p :     2.277581
      px      :     0.787456
      py      :     0.836264
      dz2     :     0.021089  d :     0.221885
      dxz     :     0.025340
      dyz     :     0.025639
      dx2y2   :     0.078308
      dxy     :     0.071509

  2 B s       :     2.558575  s :     2.558575
      pz      :     0.654004  p :     2.277836
      px      :     0.809747
      py      :     0.814085
      dz2     :     0.021099  d :     0.222012
      dxz     :     0.025497
      dyz     :     0.025496
      dx2y2   :     0.065600
      dxy     :     0.084319

  3 B s       :     2.788078  s :     2.788078
      pz      :     0.475007  p :     2.104274
      px      :     0.670428
      py      :     0.958839
      dz2     :     0.011288  d :     0.108107
      dxz     :     0.018046
      dyz     :     0.009352
      dx2y2   :     0.031703
      dxy     :     0.037718

  4 B s       :     2.735587  s :     2.735587
      pz      :     0.462769  p :     2.075487
      px      :     0.817780
      py      :     0.794937
      dz2     :     0.011426  d :     0.129729
      dxz     :     0.015034
      dyz     :     0.014715
      dx2y2   :     0.047153
      dxy     :     0.041401

  5 B s       :     2.787948  s :     2.787948
      pz      :     0.473755  p :     2.104428
      px      :     0.966340
      py      :     0.664332
      dz2     :     0.011314  d :     0.108158
      dxz     :     0.008568
      dyz     :     0.018639
      dx2y2   :     0.032032
      dxy     :     0.037605

  6 B s       :     2.787742  s :     2.787742
      pz      :     0.473948  p :     2.104981
      px      :     0.837643
      py      :     0.793390
      dz2     :     0.011290  d :     0.108134
      dxz     :     0.015401
      dyz     :     0.011748
      dx2y2   :     0.036115
      dxy     :     0.033582

  7 B s       :     2.736127  s :     2.736127
      pz      :     0.461495  p :     2.074558
      px      :     0.672775
      py      :     0.940289
      dz2     :     0.011428  d :     0.129493
      dxz     :     0.012909
      dyz     :     0.016524
      dx2y2   :     0.042491
      dxy     :     0.046142

  8 B s       :     2.787749  s :     2.787749
      pz      :     0.473672  p :     2.104772
      px      :     0.710864
      py      :     0.920236
      dz2     :     0.011283  d :     0.108126
      dxz     :     0.019429
      dyz     :     0.007699
      dx2y2   :     0.037286
      dxy     :     0.032429

  9 B s       :     2.787891  s :     2.787891
      pz      :     0.473949  p :     2.104436
      px      :     0.937567
      py      :     0.692921
      dz2     :     0.011327  d :     0.108210
      dxz     :     0.007417
      dyz     :     0.019805
      dx2y2   :     0.036530
      dxy     :     0.033131

 10 B s       :     2.735453  s :     2.735453
      pz      :     0.463075  p :     2.075697
      px      :     0.928486
      py      :     0.684136
      dz2     :     0.011430  d :     0.129750
      dxz     :     0.016569
      dyz     :     0.013246
      dx2y2   :     0.043200
      dxy     :     0.045305

 11 B s       :     2.788144  s :     2.788144
      pz      :     0.475179  p :     2.104120
      px      :     0.768535
      py      :     0.860407
      dz2     :     0.011290  d :     0.108072
      dxz     :     0.012842
      dyz     :     0.014552
      dx2y2   :     0.035111
      dxy     :     0.034276



                      *****************************
                      * MAYER POPULATION ANALYSIS *
                      *****************************

  NA   - Mulliken gross atomic population
  ZA   - Total nuclear charge
  QA   - Mulliken gross atomic charge
  VA   - Mayer's total valence
  BVA  - Mayer's bonded valence
  FA   - Mayer's free valence

  ATOM       NA         ZA         QA         VA         BVA        FA
  0 B      4.6482     5.0000     0.3518     2.8215     2.8215     0.0000
  1 B      4.6461     5.0000     0.3539     2.8188     2.8188     0.0000
  2 B      4.6441     5.0000     0.3559     2.8158     2.8158     0.0000
  3 B      5.2698     5.0000    -0.2698     3.2797     3.2797    -0.0000
  4 B      4.8140     5.0000     0.1860     3.3157     3.3157     0.0000
  5 B      5.2693     5.0000    -0.2693     3.2796     3.2796     0.0000
  6 B      5.2699     5.0000    -0.2699     3.2815     3.2815     0.0000
  7 B      4.8148     5.0000     0.1852     3.3145     3.3145     0.0000
  8 B      5.2701     5.0000    -0.2701     3.2806     3.2806     0.0000
  9 B      5.2705     5.0000    -0.2705     3.2783     3.2783    -0.0000
 10 B      4.8134     5.0000     0.1866     3.3157     3.3157    -0.0000
 11 B      5.2698     5.0000    -0.2698     3.2787     3.2787    -0.0000

  Mayer bond orders larger than 0.100000
B(  0-B ,  1-B ) :   0.4793 B(  0-B ,  2-B ) :   0.4774 B(  0-B ,  3-B ) :   0.5083 
B(  0-B ,  4-B ) :   0.4401 B(  0-B , 10-B ) :   0.4401 B(  0-B , 11-B ) :   0.5081 
B(  1-B ,  2-B ) :   0.4781 B(  1-B ,  4-B ) :   0.4394 B(  1-B ,  5-B ) :   0.5068 
B(  1-B ,  6-B ) :   0.5078 B(  1-B ,  7-B ) :   0.4388 B(  2-B ,  7-B ) :   0.4381 
B(  2-B ,  8-B ) :   0.5069 B(  2-B ,  9-B ) :   0.5062 B(  2-B , 10-B ) :   0.4399 
B(  3-B ,  4-B ) :   1.0798 B(  3-B , 11-B ) :   1.4821 B(  4-B ,  5-B ) :   1.0807 
B(  5-B ,  6-B ) :   1.4831 B(  6-B ,  7-B ) :   1.0815 B(  7-B ,  8-B ) :   1.0813 
B(  8-B ,  9-B ) :   1.4834 B(  9-B , 10-B ) :   1.0805 B( 10-B , 11-B ) :   1.0793 


-------
TIMINGS
-------

Total SCF time: 0 days 0 hours 0 min 9 sec 

Total time                  ....       9.011 sec
Sum of individual times     ....       8.384 sec  ( 93.0%)

SCF preparation             ....       0.813 sec  (  9.0%)
Fock matrix formation       ....       4.720 sec  ( 52.4%)
  Startup                   ....       0.014 sec  (  0.3% of F)
  Split-RI-J                ....       1.425 sec  ( 30.2% of F)
  XC integration            ....       3.127 sec  ( 66.2% of F)
    XC Preparation          ....       0.000 sec  (  0.0% of XC)
    Basis function eval.    ....       0.414 sec  ( 13.2% of XC)
    Density eval.           ....       0.310 sec  (  9.9% of XC)
    XC-Functional eval.     ....       0.050 sec  (  1.6% of XC)
    XC-Potential eval.      ....       0.346 sec  ( 11.1% of XC)
Diagonalization             ....       0.000 sec  (  0.0%)
Density matrix formation    ....       0.344 sec  (  3.8%)
Total Energy calculation    ....       0.098 sec  (  1.1%)
Population analysis         ....       0.202 sec  (  2.2%)
Orbital Transformation      ....       0.020 sec  (  0.2%)
Orbital Orthonormalization  ....       0.000 sec  (  0.0%)
DIIS solution               ....       0.083 sec  (  0.9%)
SOSCF solution              ....       2.103 sec  ( 23.3%)
Finished LeanSCF after   9.2 sec

Maximum memory used throughout the entire LEANSCF-calculation: 13.7 MB


-------------------------------------------------------------------------------
                          DFT DISPERSION CORRECTION                            
                                                                               
                              DFTD3 V3.1  Rev 1                                
                          USING Becke-Johnson damping                          
-------------------------------------------------------------------------------
The BP86 functional is recognized
Active option DFTDOPT                   ...         4   

molecular C6(AA) [au] = 4351.654644 


            DFT-D V3
 parameters
 s6 scaling factor         :     1.0000 
 a1 scaling factor         :     0.3946 
 s8 scaling factor         :     3.2822 
 a2 scaling factor         :     4.8516 
 ad hoc parameters k1-k3   :    16.0000     1.3333    -4.0000 

 Edisp/kcal,au: -20.739063788741  -0.033049798344 
 E6   /kcal   :  -5.977495176 
 E8   /kcal   : -14.761568613 
 % E8         :  71.177603595 

-------------------------   ----------------
Dispersion correction           -0.033049798
-------------------------   ----------------


-------------------------   --------------------
FINAL SINGLE POINT ENERGY      -297.750639543635
-------------------------   --------------------

                                *** OPTIMIZATION RUN DONE ***



           ************************************************************
           *        Program running with 8 parallel MPI-processes     *
           *              working on a common directory               *
           ************************************************************

------------------------------------------------------------------------------
                              ORCA PROPERTY CALCULATIONS
------------------------------------------------------------------------------

GBWName                                 ... quasi_planar_nn2.00_perturb1.gbw
Number of atoms                         ...     12
Number of basis functions               ...    168
Max core memory                         ...   2500 MB

Electric properties:
Dipole moment                           ... YES
Quadrupole moment                       ...  NO
Static polarizability (Dipole/Dipole)   ...  NO
Static polarizability (Dipole/Quad.)    ...  NO
Static polarizability (Quad./Quad.)     ...  NO
Static polarizability (Velocity)        ...  NO
Static hyperpolarizability              ...  NO

Atomic electric properties:
Dipole moment                           ...  NO
Quadrupole moment                       ...  NO
Static polarizability                   ...  NO

Choice of electric origin               ... Center of mass
Position of electric origin             ...    -0.032320     0.026208     0.053300

General magnetic properties:
Magnetizability                         ...  NO

EPR properties:
g-Tensor (aka g-matrix)                 ...  NO
Zero-Field splitting spin-orbit         ...  NO
Zero-field splitting spin-spin          ...  NO
Hyperfine couplings                     ...  NO (   0 nuclei)
Quadrupole couplings                    ...  NO (   0 nuclei)
Contact density                         ...  NO (   0 nuclei)

NMR properties:
Chemical shifts                         ...  NO (   0 nuclei)
Spin-rotation constants                 ...  NO (   0 nuclei)
Spin-spin couplings                     ...  NO (   0 nuclei,    0 pairs)

Choice of magnetic origin               ... GIAO
Position of magnetic origin             ...     0.000000     0.000000     0.000000

Properties with geometric perturbations:
SCF Hessian                             ...  NO
IR spectrum                             ...  NO
VCD spectrum                            ...  NO
X-ray spectroscopy properties:
SCF XES/XAS/RIXS spectra                ...  NO

SCF SOC stabilization energy            ...  NO
Diagonal Born-Oppenheimer correction    ...  NO

-------------
DIPOLE MOMENT
-------------

Method             : SCF
Type of density    : Electron Density
Multiplicity       :   1
Irrep              :   0
Energy             :  -297.7175897452911499 Eh
Basis              : AO
                                X                 Y                 Z
Electronic contribution:      0.002702219      -0.000980280      -0.777309989
Nuclear contribution   :      0.000000000      -0.000000000       0.000000000
                        -----------------------------------------
Total Dipole Moment    :      0.002702219      -0.000980280      -0.777309989
                        -----------------------------------------
Magnitude (a.u.)       :      0.777315304
Magnitude (Debye)      :      1.975778484



--------------------
Rotational spectrum 
--------------------
 
Rotational constants in cm-1:             0.058828             0.058800             0.030100 
Rotational constants in MHz :          1763.609241          1762.778990           902.384453 

Dipole components along the rotational axes: 
x,y,z [a.u.] :    -0.000249     0.000286    -0.777315 
x,y,z [Debye]:    -0.000634     0.000728    -1.975778 

 

Dipole moment calculation done in   0.1 sec 

Maximum memory used throughout the entire PROP-calculation: 10.7 MB

--------------------------------
SUGGESTED CITATIONS FOR THIS RUN
--------------------------------

Below you find a list of papers that are relevant to this ORCA run
We neither can nor want to force you to cite these papers, but we appreciate if you do
You receive ORCA, which is the product of decades of hard work by many enthusiastic individuals, for free
The only thing we kindly ask in return is that you cite our papers,
We deeply appreciate it, if you show your appreciation for ORCA by not just citing the generic ORCA reference.

Please note that relegating all ORCA citations to the supporting information does *not* help us.
SI sections are not indexed - citations you put there will not count into any citation statistics
But we need these citations in order to attract the funding resources that allow us to do what we are doing

Therefore, if you are a happy ORCA user, please consider citing a few of the papers listed below in the main body of your paper

In addition to the list printed below, the program has created the file quasi_planar_nn2.00_perturb1.bibtex that contains the list in bibtex format
You can import this file easily into all common literature databanks and citation aid programs

It goes without saying that in many instances, there are alternative algorithms to achieve similar
results as the ones you have gotten from ORCA. It is, of course, also the case that in some instances
ORCA just re-implements algorithms worked out by others. We are fully aware of that and we are also
fully appreciative of our colleagues work. Hence this citation list should not be read as indicating
that the listed papers, which are focused on our own work, are the only ones worth citing. It simply
meant to make it easier for users to cite ORCA specific papers. It is not a substitute for doing your
own literature research and citing the relevant literature in a scientifically appropriate manner.

List of essential papers. We consider these as the minimum necessary citations

  1. Neese, F.
     Software update: the ORCA program system, version 6.0
     WIRES Comput. Molec. Sci. 2025 15(1), e70019
     doi.org/10.1002/wcms.70019

List of papers to cite with high priority. The work reported in these papers was absolutely
necessary for this run to complete.
Our perspective: the developers of density functionals and basis sets usually get cited in chemistry papers
Good! But without the algorithms to do something with them, the functionals or basis sets would not do anything.
Hence, in our opinion, the algorithm design and method developments papers are equally worthy of getting cited

  1. Neese, F.
     An improvement of the resolution of the identity approximation for the formation of the Coulomb matrix
     J. Comp. Chem. 2003 24(14), 1740-1747
     doi.org/10.1002/jcc.10318
  2. Grimme, S.; Antony, J.; Ehrlich, S.; Krieg, H.
     A consistent and accurate ab initio parametrization of density functional dispersion correction (DFT-D) for the 94 elements H-Pu
     J. Chem. Phys. 2010 132 , 154104
     doi.org/10.1063/1.3382344
  3. Grimme, S.; Ehrlich, S.; Goerigk, L.
     Effect of the damping function in dispersion corrected density functional theory
     J. Comput. Chem. 2011 32(7), 1456-1465
     doi.org/10.1002/jcc.21759
  4. Neese, F.
     The SHARK Integral Generation and Digestion System
     J. Comp. Chem. 2022 44(3), 381
     doi.org/10.1002/jcc.26942

List of suggested additional citations. These are papers that are important in the 'surrounding' of 
of this run, or papers that preceded the highly important papers. If you like your results we are grateful for a citation.

  1. Neese, F.
     The ORCA program system
     WIRES Comput. Molec. Sci. 2012 2(1), 73-78
     doi.org/10.1002/wcms.81
  2. Neese, F.
     Software update: the ORCA program system, version 4.0
     WIRES Comput. Molec. Sci. 2018 8(1), 1-6
     doi.org/10.1002/wcms.1327
  3. Neese, F.; Wennmohs, F.; Becker, U.; Riplinger, C.
     The ORCA quantum chemistry program package
     J. Chem. Phys. 2020 152(22), 224108
     doi.org/10.1063/5.0004608
  4. Neese, F.
     Software update: The ORCA program system—Version 5.0
     WIRES Comput. Molec. Sci. 2022 12(1), e1606
     doi.org/10.1002/wcms.1606

List of optional additional citations

  1. Neese, F.
     Approximate second-order SCF convergence for spin unrestricted wavefunctions
     Chem. Phys. Lett. 2000 325(1-3), 93-98
     doi.org/10.1016/s0009-2614(00)00662-x

Timings for individual modules:

Sum of individual times          ...     1571.524 sec (=  26.192 min)
Startup calculation              ...      181.730 sec (=   3.029 min)  11.6 %
SCF iterations                   ...     1164.313 sec (=  19.405 min)  74.1 %
Property calculations            ...        0.961 sec (=   0.016 min)   0.1 %
SCF Gradient evaluation          ...      222.282 sec (=   3.705 min)  14.1 %
Geometry relaxation              ...        2.238 sec (=   0.037 min)   0.1 %
                             ****ORCA TERMINATED NORMALLY****
TOTAL RUN TIME: 0 days 0 hours 27 minutes 29 seconds 681 msec
