
                                 *****************
                                 * O   R   C   A *
                                 *****************

                                            #,                                       
                                            ###                                      
                                            ####                                     
                                            #####                                    
                                            ######                                   
                                           ########,                                 
                                     ,,################,,,,,                         
                               ,,#################################,,                 
                          ,,##########################################,,             
                       ,#########################################, ''#####,          
                    ,#############################################,,   '####,        
                  ,##################################################,,,,####,       
                ,###########''''           ''''###############################       
              ,#####''   ,,,,##########,,,,          '''####'''          '####       
            ,##' ,,,,###########################,,,                        '##       
           ' ,,###''''                  '''############,,,                           
         ,,##''                                '''############,,,,        ,,,,,,###''
      ,#''                                            '''#######################'''  
     '                                                          ''''####''''         
             ,#######,   #######,   ,#######,      ##                                
            ,#'     '#,  ##    ##  ,#'     '#,    #''#        ,####,    ,#,          
            ##       ##  ##   ,#'  ##            #'  '#       #'       ,# #          
            ##       ##  #######   ##           ,######,      #####,      #          
            '#,     ,#'  ##    ##  '#,     ,#' ,#      #,     #,   #      #          
             '#######'   ##     ##  '#######'  #'      '#     '####' #    #          



                #########################################################
                #                        -***-                          #
                #          Department of theory and spectroscopy        #
                #                                                       #
                #                      Frank Neese                      #
                #                                                       #
                #     Directorship, Architecture, Infrastructure        #
                #                    SHARK, DRIVERS                     #
                #        Core code/Algorithms in most modules           #
                #                                                       #
                #        Max Planck Institute fuer Kohlenforschung      #
                #                Kaiser Wilhelm Platz 1                 #
                #                 D-45470 Muelheim/Ruhr                 #
                #                      Germany                          #
                #                                                       #
                #                  All rights reserved                  #
                #                        -***-                          #
                #########################################################


                         Program Version 6.1.1  -  RELEASE   -
                                (GIT: $487d211c$)
                          ($2025-11-21 10:33:24 +0100$)
                                                                         
                                  - NO-DMRG VERSION -                    
                                                                         


 With contributions from (in alphabetic order):
[Max-Planck-Institut fuer Kohlenforschung]                               
  Daniel Aravena         : Magnetic Suceptibility                        
  Michael Atanasov       : Ab Initio Ligand Field Theory (pilot matlab implementation)
  Alexander A. Auer      : GIAO ZORA, VPT2 properties, NMR spectrum      
  Ute Becker             : All parallelization in ORCA, NUMFREQ, NUMCALC 
  Giovanni Bistoni       : ED, misc. LED, open-shell LED, HFLD           
  Dmytro Bykov           : pre 5.0 version of the SCF Hessian            
  Marcos Casanova-Páez   : Triplet and SCS-CIS(D). UHF-(DLPNO)-IP/EA/STEOM-CCSD. UHF-CVS-IP/STEOM-CCSD   
  Vijay G. Chilkuri      : MRCI spin determinant printing, contributions to CSF-ICE 
  Pauline Colinet        : FMM embedding                                 
  Dipayan Datta          : RHF DLPNO-CCSD density                        
  Achintya Kumar Dutta   : EOM-CC, STEOM-CC                              
  Nicolas Foglia         : Exact transition moments, OPA infrastructure, MCD improvements    
  Dmitry Ganyushin       : Spin-Orbit,Spin-Spin,Magnetic field MRCI      
  Miquel Garcia-Rates    : C-PCM and meta-GGA Hessian, CCSD/C-PCM, Gaussian charge scheme 
  Tiago L. C. Gouveia    : GS-ROHF, GS-ROCIS                             
  Yang Guo               : DLPNO-NEVPT2, F12-NEVPT2, CIM, IAO-localization        
  Andreas Hansen         : Spin unrestricted coupled pair/coupled cluster methods 
  Ingolf Harden          : AUTO-CI MPn and infrastructure                
  Benjamin Helmich-Paris : MC-RPA, TRAH-(SCF,CASSCF), AVAS, COSX integrals, SCF dyn. polar., MC-PDFT, srDFT 
  Lee Huntington         : MR-EOM, pCC                                   
  Robert Izsak           : Overlap fitted RIJCOSX, COSX-SCS-MP3, EOM     
  Riya Kayal             : Wick's Theorem for AUTO-CI, AUTO-CI UHF-CCSDT 
  Emily Kempfer          : AUTO-CI RHF CISDT and CCSDT, approximate NEVPT4
  Christian Kollmar      : KDIIS, OOCD, Brueckner-CCSD(T), CCSD density, CASPT2, CASPT2-K, improved NEVPT2 
  Axel Koslowski         : Symmetry handling                             
  Simone Kossmann        : meta-GGA functionals, TD-DFT gradient, OOMP2, (MP2 Hessian; deprecated post 5.0) 
  Lucas Lang             : DCDCAS, Hyperfine gauge corrections, ICE-SOC+SSC
  Marvin Lechner         : AUTO-CI (C++ implementation), FIC-MRCC        
  Spencer Leger          : CASSCF response                               
  Dagmar Lenk            : GEPOL surface, SMD, ORCA-2-JSON               
  Dimitrios Liakos       : Extrapolation schemes; Compound Job, Property file
  Dimitrios Manganas     : Further ROCIS development; embedding schemes. LFT, Crystal Embedding 
  Dimitrios Pantazis     : SARC Basis sets                               
  Anastasios Papadopoulos: AUTO-CI, single reference methods and gradients 
  Taras Petrenko         : pre 6.0 DFT Hessian and TD-DFT gradient,  ECA, NRVS 
  Petra Pikulova         : Analytic Raman intensities                    
  Peter Pinski           : DLPNO-MP2, DLPNO-MP2 Gradient                 
  Shashank Vittal Rao    : ES-AILFT, MagRelax                            
  Christoph Reimann      : Effective Core Potentials                     
  Marius Retegan         : Local ZFS, SOC                                
  Christoph Riplinger    : Optimizer, TS searches, QM/MM, DLPNO-CCSD(T), (RO)-DLPNO pert. Triples 
  Michael Roemelt        : Original ROCIS implementation, recursive CI coupling coefficients
  Masaaki Saitow         : Open-shell DLPNO-CCSD energy and density      
  Barbara Sandhoefer     : DKH picture change effects                    
  Yorick L. A. Schmerwitz: GMF and freeze-and-release deltaSCF, NEB S-IDPP initial path                    
  Kantharuban Sivalingam : CASSCF convergence/infrastructure, NEVPT2, NEVPT3, NEVPT4(SD), FIC-MRCI and CEPA variants
  Bernardo de Souza      : ESD, SOC TD-DFT                               
  Georgi L. Stoychev     : AutoAux, RI-MP2 NMR, DLPNO-MP2 response, X2C  
  Van Anh Tran           : RI-MP2 g-tensors                              
  Willem Van den Heuvel  : Paramagnetic NMR                              
  Zikuan Wang            : NOTCH, Electric field optimization            
  Frank Wennmohs         : Technical directorship and infrastructure     
  Hang Xu                : AUTO-CI-Response properties                   
                                                                         
[FACCTs GmbH]                                                            
  Markus Bursch, Nicolas Foglia, Miquel Garcia-Rates, Ingolf Harden, Hagen Neugebauer, Anastasios Papadopoulos, 
  Christoph Riplinger, Bernardo de Souza, Georgi L. Stoychev                                                    
                                                                 
  APM, various basis sets, CI-OPT, improved COSX, DLPNO-Multilevel,           
  DOCKER, DRACO, updates on ESD, Fragmentator, GOAT, IRC, LR-CPCM, L-BFGS, MBIS, meta-GGA TD-DFT gradient, ML-optimized integration grids, 
  MM, NACMEs, nearIR, NEB, NEB-TS, NL-DFT gradient (VV10), 2- and 3-layer-ONIOM, interface openCOSMO-RS, QMMM,   
  Crystal-QMMM, RESP, rigid body optimization, SF, symmetry and pop. for TD-DFT, various functionals, SOLVATOR                                   
                                                                         
[Other institutions]                                                     
  V. Asgeirsson          : NEB                                           
  Christoph Bannwarth    : sTDA-DFT, sTD-DFT, PBEh-3c, B97-3c, D3        
  Giovanni Bistoni       : ETS/NOCV, ADLD/ADEX, COVALED                  
  Martin Brehm           : Molecular dynamics                            
  Ronald Cardenas        : ETS/NOCV                                      
  Martina Colucci        : COVALED                                       
  Sebastian Ehlert       : rSCAN, r2SCAN, r2SCAN-3c, D4, dhf basis sets  
  Marvin Friede          : D4 for Fr, Ra, Ac-Lr                          
  Lars Goerigk           : TD-DFT with DH, B97 family of functionals     
  Stefan Grimme          : VdW corrections, initial TS optimization, DFT functionals, gCP, sTDA/sTD-DF 
  Waldemar Hujo          : DFT-NL                                        
  H. Jonsson             : NEB                                           
  Holger Kruse           : gCP                                           
  Marcel Mueller         : wB97X-3c, vDZP basis set                      
  Hagen Neugebauer       : wr2SCAN, Native XTB                           
  Gianluca Regni         : ADLD/ADEX                                     
  Tobias Risthaus        : pre 6.0 range-separated hybrid DFT and stability analysis
  Lukas Wittmann         : regularized MP2, r2SCAN double-hybrids, wr2SCAN        
                                                                         
We gratefully acknowledge several colleagues who have allowed us to      
interface, adapt or use parts of their codes:                            
  Ed Valeev, F. Pavosevic, A. Kumar             : LibInt (2-el integral package), F12 methods 
  Garnet Chan, S. Sharma, J. Yang, R. Olivares  : DMRG                   
  Ulf Ekstrom                                   : XCFun DFT Library      
  Mihaly Kallay                                 : mrcc  (arbitrary order and MRCC methods)
  Frank Weinhold                                : gennbo (NPA and NBO analysis)           
  Simon Mueller                                 : openCOSMO-RS                            
  Christopher J. Cramer and Donald G. Truhlar   : smd solvation model                     
  S Lehtola, MJT Oliveira, MAL Marques          : LibXC Library                           
  Liviu Ungur et al                             : ANISO software                          


 Your calculation uses the libint2 library for the computation of 2-el integrals
 For citations please refer to: http://libint.valeyev.net

 Your ORCA version has been built with support for libXC version: 7.0.0
 For citations please refer to: https://libxc.gitlab.io

 This ORCA versions uses:
   CBLAS   interface :  Fast vector & matrix operations
   LAPACKE interface :  Fast linear algebra routines
   SCALAPACK package :  Parallel linear algebra routines
   Shared memory     :  Shared parallel matrices
   BLAS/LAPACK       :  OpenBLAS 0.3.29  USE64BITINT DYNAMIC_ARCH NO_AFFINITY Zen SINGLE_THREADED
        Core in use  :  Zen
   Copyright (c) 2011-2014, The OpenBLAS Project


  ***********************************
  * Starting time: Thu Apr 23 09:25:21 2026
  * Host name:     vmi3233575
  * Process ID:    1091303
  * Working dir.:  /root/b12_scan/jobs/cuboctahedron_nn1.70_perturb2
  ***********************************

NOTE: MaxCore=2500 MB was set to SCF,MP2,MDCI,CIPSI,MRCI,RASCI and CIS
      => If you want to overwrite this, your respective input block should be placed after the MaxCore statement
Your calculation utilizes the atom-pairwise dispersion correction
with the Becke-Johnson damping scheme (D3BJ)


================================================================================

----- Orbital basis set information -----
Your calculation utilizes the basis: def2-SVP
   F. Weigend and R. Ahlrichs, Phys. Chem. Chem. Phys. 7, 3297 (2005).

----- AuxJ basis set information -----
Your calculation utilizes the auxiliary basis: def2/J
   H-Rn: F. Weigend, Phys. Chem. Chem. Phys. 8, 1057 (2006).
   Fr-Lr: K. Eichkorn, F. Weigend, O. Treutler, R. Ahlrichs; Theor. Chem. Acc. 97, 119 (1997).

================================================================================
                                        WARNINGS
                       Please study these warnings very carefully!
================================================================================


WARNING: Geometry Optimization
  ===> : Switching off AutoStart
         For restart on a previous wavefunction, please use MOREAD

================================================================================
                                       INPUT FILE
================================================================================
NAME = cuboctahedron_nn1.70_perturb2.inp
|  1> ! BP86 def2-SVP def2/J RI Opt TightSCF D3BJ
|  2> ! SlowConv
|  3> 
|  4> %pal nprocs 8 end
|  5> %maxcore 2500
|  6> 
|  7> %geom
|  8>   MaxIter 300
|  9> end
| 10> 
| 11> * xyz 0 1
| 12> B      0.02835801     -1.28049379     -1.26404106
| 13> B     -1.56830164      0.26995611     -1.03045665
| 14> B     -1.25089495     -1.08601054      0.04218160
| 15> B     -0.08307343     -1.05544641      1.15549805
| 16> B     -1.25140511     -0.11882201      1.27032524
| 17> B     -1.21696124      1.28387484     -0.09107785
| 18> B      0.01902418      1.06824042     -1.07586178
| 19> B      1.23028679      0.04958565     -1.14050594
| 20> B      1.05046790     -1.08460438      0.30850542
| 21> B     -0.24576638      0.94266981      0.97635682
| 22> B      1.32830036      0.01930735      1.36383289
| 23> B      1.31044616      1.23366730      0.04260572
| 24> *
| 25> 
| 26>                          ****END OF INPUT****
================================================================================

                       *****************************
                       * Geometry Optimization Run *
                       *****************************

Geometry optimization settings:
Update method            Update   .... BFGS
Choice of coordinates    CoordSys .... (2022) Redundant Internals
Initial Hessian          InHess   .... Almloef's Model
Max. no of cycles        MaxIter  .... 300

Convergence Tolerances:
Energy Change            TolE     ....  5.0000e-06 Eh
Max. Gradient            TolMAXG  ....  3.0000e-04 Eh/bohr
RMS Gradient             TolRMSG  ....  1.0000e-04 Eh/bohr
Max. Displacement        TolMAXD  ....  4.0000e-03 bohr
RMS Displacement         TolRMSD  ....  2.0000e-03 bohr
Strict Convergence                .... False

------------------------------------------------------------------------------
                        ORCA OPTIMIZATION COORDINATE SETUP
------------------------------------------------------------------------------

The optimization will be done in redundant internal coordinates (2022)
Making redundant internal coordinates   ...  (2022 redundants) done
Evaluating the initial hessian          ...  (Almloef) done
Evaluating the coordinates              ...  done
Calculating the B-matrix                .... done
Calculating the G-matrix                .... done
The number of degrees of freedom        ....  274

    -----------------------------------------------------------------
                    Redundant Internal Coordinates


    -----------------------------------------------------------------
         Definition                    Initial Value    Approx d2E/dq
    -----------------------------------------------------------------
      1. B(B   2,B   1)                  1.7578         0.217037   
      2. B(B   2,B   0)                  1.8386         0.161297   
      3. B(B   3,B   2)                  1.6138         0.368453   
      4. B(B   4,B   3)                  1.5018         0.555878   
      5. B(B   4,B   2)                  1.5633         0.443551   
      6. B(B   5,B   4)                  1.9550         0.105171   
      7. B(B   5,B   1)                  1.4261         0.734004   
      8. B(B   6,B   5)                  1.5950         0.394769   
      9. B(B   6,B   1)                  1.7773         0.202024   
     10. B(B   7,B   6)                  1.5840         0.411046   
     11. B(B   7,B   0)                  1.7969         0.187984   
     12. B(B   8,B   7)                  1.8489         0.155332   
     13. B(B   8,B   3)                  1.4153         0.763764   
     14. B(B   8,B   0)                  1.8857         0.135664   
     15. B(B   9,B   3)                  2.0127         0.085088   
     16. B(B   9,B   6)                  2.0730         0.068176   
     17. B(B   9,B   5)                  1.4829         0.595830   
     18. B(B   9,B   4)                  1.4915         0.577404   
     19. B(B  10,B   9)                  1.8656         0.146084   
     20. B(B  10,B   8)                  1.5523         0.461838   
     21. B(B  10,B   3)                  1.7862         0.195559   
     22. B(B  11,B  10)                  1.7946         0.189601   
     23. B(B  11,B   9)                  1.8380         0.161646   
     24. B(B  11,B   7)                  1.6758         0.293383   
     25. B(B  11,B   6)                  1.7164         0.252689   
     26. A(B   2,B   0,B   7)          109.7700         0.291637   
     27. A(B   2,B   0,B   8)           76.9200         0.277216   
     28. A(B   7,B   0,B   8)           60.2138         0.283853   
     29. A(B   2,B   1,B   5)           95.8544         0.383979   
     30. A(B   5,B   1,B   6)           58.4991         0.379232   
     31. A(B   2,B   1,B   6)          101.5833         0.309281   
     32. A(B   0,B   2,B   4)          128.5949         0.335095   
     33. A(B   0,B   2,B   3)           89.3481         0.324976   
     34. A(B   0,B   2,B   1)           76.9215         0.298337   
     35. A(B   1,B   2,B   4)           90.1192         0.352196   
     36. A(B   3,B   2,B   4)           56.3940         0.385690   
     37. A(B   1,B   2,B   3)          122.4822         0.341374   
     38. A(B   8,B   3,B   9)           91.8296         0.329799   
     39. A(B   2,B   3,B   9)           84.1977         0.293175   
     40. A(B   4,B   3,B   8)          132.9737         0.457252   
     41. A(B   9,B   3,B  10)           58.4606         0.265903   
     42. A(B   2,B   3,B  10)          131.5806         0.335492   
     43. A(B   2,B   3,B   8)           99.5749         0.424523   
     44. A(B   2,B   3,B   4)           60.1049         0.401242   
     45. A(B   4,B   3,B   9)           47.5291         0.313091   
     46. A(B   4,B   3,B  10)          103.3280         0.359536   
     47. A(B   8,B   3,B  10)           56.5888         0.379707   
     48. A(B   2,B   4,B   5)           84.0777         0.312391   
     49. A(B   5,B   4,B   9)           48.7180         0.326131   
     50. A(B   3,B   4,B   5)          112.3656         0.324101   
     51. A(B   3,B   4,B   9)           84.5059         0.434660   
     52. A(B   2,B   4,B   3)           63.5011         0.414631   
     53. A(B   2,B   4,B   9)          106.5747         0.417443   
     54. A(B   1,B   5,B   6)           71.8263         0.426751   
     55. A(B   1,B   5,B   4)           86.8039         0.339367   
     56. A(B   6,B   5,B   9)           84.5957         0.411178   
     57. A(B   4,B   5,B   9)           49.0957         0.327823   
     58. A(B   1,B   5,B   9)          118.1572         0.459733   
     59. A(B   4,B   5,B   6)          110.2797         0.306577   
     60. A(B   1,B   6,B  11)          134.3145         0.316996   
     61. A(B   7,B   6,B   9)           95.6886         0.288055   
     62. A(B   5,B   6,B   9)           45.4108         0.286243   
     63. A(B   1,B   6,B   9)           80.4114         0.258492   
     64. A(B   5,B   6,B   7)          134.8071         0.385212   
     65. A(B   1,B   6,B   7)          113.2748         0.343538   
     66. A(B   1,B   6,B   5)           49.6746         0.341221   
     67. A(B   9,B   6,B  11)           57.1022         0.267298   
     68. A(B   7,B   6,B  11)           60.8711         0.356762   
     69. A(B   5,B   6,B  11)           99.6531         0.354324   
     70. A(B   6,B   7,B   8)          106.7472         0.328838   
     71. A(B   0,B   7,B   8)           62.2741         0.289916   
     72. A(B   0,B   7,B   6)           88.1281         0.339422   
     73. A(B   8,B   7,B  11)           83.3843         0.311213   
     74. A(B   6,B   7,B  11)           63.4717         0.365966   
     75. A(B   0,B   7,B  11)          127.1238         0.321019   
     76. A(B   3,B   8,B   7)          122.2944         0.364942   
     77. A(B   0,B   8,B   7)           57.5121         0.275618   
     78. A(B   7,B   8,B  10)           94.5401         0.335246   
     79. A(B   3,B   8,B  10)           73.8496         0.442124   
     80. A(B   0,B   8,B  10)          137.5477         0.327815   
     81. A(B   0,B   8,B   3)           93.8465         0.356615   
     82. A(B   6,B   9,B  10)           97.3436         0.246500   
     83. A(B  10,B   9,B  11)           57.9610         0.280489   
     84. A(B   5,B   9,B  10)          144.6829         0.346262   
     85. A(B   4,B   9,B  10)          100.1197         0.344440   
     86. A(B   3,B   9,B  10)           54.6871         0.254601   
     87. A(B   5,B   9,B   6)           49.9936         0.305504   
     88. A(B   4,B   9,B   6)          108.9264         0.303970   
     89. A(B   3,B   9,B   6)           97.9275         0.228365   
     90. A(B   4,B   9,B   5)           82.1863         0.440133   
     91. A(B   3,B   9,B   5)          110.2078         0.316639   
     92. A(B   6,B   9,B  11)           51.6363         0.250151   
     93. A(B   3,B   9,B   4)           47.9650         0.315027   
     94. A(B   5,B   9,B  11)           98.7658         0.352225   
     95. A(B   4,B   9,B  11)          141.5991         0.350360   
     96. A(B   3,B   9,B  11)           97.6978         0.258439   
     97. A(B   8,B  10,B   9)           93.4263         0.331849   
     98. A(B   3,B  10,B   9)           66.8523         0.288924   
     99. A(B   3,B  10,B   8)           49.5616         0.348422   
    100. A(B   9,B  10,B  11)           60.2499         0.287529   
    101. A(B   8,B  10,B  11)           88.7917         0.346612   
    102. A(B   3,B  10,B  11)          108.2656         0.301077   
    103. A(B   9,B  11,B  10)           61.7891         0.292130   
    104. A(B   7,B  11,B  10)           92.4144         0.321469   
    105. A(B   6,B  11,B  10)          114.9615         0.313744   
    106. A(B   7,B  11,B   9)          101.9054         0.313226   
    107. A(B   6,B  11,B   9)           71.2614         0.305774   
    108. A(B   6,B  11,B   7)           55.6571         0.337085   
    109. D(B   4,B   2,B   1,B   5)     15.7415         0.010000   
    110. D(B   3,B   2,B   1,B   6)     25.6383         0.010000   
    111. D(B   4,B   2,B   0,B   7)    -10.6889         0.010000   
    112. D(B   3,B   2,B   0,B   8)     -3.5734         0.010000   
    113. D(B   3,B   2,B   0,B   7)    -54.8582         0.010000   
    114. D(B   3,B   2,B   1,B   5)    -33.3539         0.010000   
    115. D(B   0,B   2,B   1,B   5)   -114.0458         0.010000   
    116. D(B   1,B   2,B   0,B   7)     68.7849         0.010000   
    117. D(B   1,B   2,B   0,B   8)    120.0696         0.010000   
    118. D(B   0,B   2,B   1,B   6)    -55.0536         0.010000   
    119. D(B   8,B   3,B   2,B   1)    -69.3022         0.010000   
    120. D(B   8,B   3,B   2,B   0)      4.7053         0.010000   
    121. D(B   8,B   3,B   2,B   4)   -134.4604         0.010000   
    122. D(B   4,B   3,B   2,B   0)    139.1657         0.010000   
    123. D(B   9,B   3,B   2,B   1)     21.5804         0.010000   
    124. D(B   9,B   3,B   2,B   0)     95.5879         0.010000   
    125. D(B   4,B   3,B   2,B   1)     65.1582         0.010000   
    126. D(B   5,B   4,B   3,B   9)     40.8606         0.017747   
    127. D(B   5,B   4,B   2,B   3)    118.6321         0.010794   
    128. D(B   9,B   4,B   2,B   0)     18.1514         0.010794   
    129. D(B   2,B   4,B   3,B   8)     74.1340         0.017747   
    130. D(B   5,B   4,B   3,B   8)      3.3913         0.017747   
    131. D(B   2,B   4,B   3,B   9)    111.6032         0.017747   
    132. D(B   2,B   4,B   3,B  10)    130.5812         0.017747   
    133. D(B   5,B   4,B   3,B   2)    -70.7426         0.017747   
    134. D(B   3,B   4,B   2,B   1)   -130.0479         0.010794   
    135. D(B   3,B   4,B   2,B   0)    -56.7781         0.010794   
    136. D(B   5,B   4,B   2,B   0)     61.8540         0.010794   
    137. D(B   5,B   4,B   3,B  10)     59.8386         0.017747   
    138. D(B   5,B   4,B   2,B   1)    -11.4159         0.010794   
    139. D(B   4,B   5,B   1,B   2)    -12.5487         0.027522   
    140. D(B   9,B   5,B   1,B   2)     26.7609         0.027522   
    141. D(B   1,B   5,B   4,B   2)     14.1428         0.010000   
    142. D(B   6,B   5,B   4,B   2)    -55.1457         0.010000   
    143. D(B   1,B   5,B   4,B   3)     72.2895         0.010000   
    144. D(B   6,B   5,B   4,B   3)      3.0009         0.010000   
    145. D(B   9,B   5,B   1,B   6)    -73.2535         0.027522   
    146. D(B   1,B   5,B   4,B   9)    132.3539         0.010000   
    147. D(B   6,B   5,B   1,B   2)    100.0144         0.027522   
    148. D(B   6,B   5,B   4,B   9)     63.0653         0.010000   
    149. D(B   4,B   5,B   1,B   6)   -112.5630         0.027522   
    150. D(B   7,B   6,B   5,B   9)     38.4667         0.010000   
    151. D(B   7,B   6,B   5,B   1)    -83.5348         0.010000   
    152. D(B   1,B   6,B   5,B   9)    122.0016         0.010000   
    153. D(B   1,B   6,B   5,B   4)     79.4054         0.010000   
    154. D(B   9,B   6,B   5,B   1)   -122.0016         0.010000   
    155. D(B  11,B   6,B   1,B   2)    -31.2235         0.010000   
    156. D(B   9,B   6,B   1,B   5)     37.7698         0.010000   
    157. D(B   9,B   6,B   1,B   2)    -52.0302         0.010000   
    158. D(B   7,B   6,B   5,B   4)     -4.1294         0.010000   
    159. D(B   7,B   6,B   1,B   5)    129.8769         0.010000   
    160. D(B   7,B   6,B   1,B   2)     40.0768         0.010000   
    161. D(B   5,B   6,B   1,B   2)    -89.8000         0.010000   
    162. D(B   9,B   6,B   5,B   4)    -42.5961         0.010000   
    163. D(B   0,B   7,B   6,B   9)     86.6003         0.010000   
    164. D(B   0,B   7,B   6,B   5)     60.1644         0.010000   
    165. D(B   0,B   7,B   6,B   1)      4.6122         0.010000   
    166. D(B   0,B   7,B   6,B  11)    133.7280         0.010000   
    167. D(B   6,B   7,B   0,B   8)   -110.0522         0.010000   
    168. D(B   8,B   7,B   0,B   2)     61.1297         0.010000   
    169. D(B  11,B   7,B   0,B   2)      5.2601         0.010000   
    170. D(B   6,B   7,B   0,B   2)    -48.9225         0.010000   
    171. D(B  11,B   7,B   0,B   8)    -55.8696         0.010000   
    172. D(B   8,B   7,B   6,B   9)     26.3323         0.010000   
    173. D(B   8,B   7,B   6,B   5)     -0.1037         0.010000   
    174. D(B   8,B   7,B   6,B   1)    -55.6559         0.010000   
    175. D(B  10,B   8,B   7,B   0)   -145.7836         0.010000   
    176. D(B   3,B   8,B   7,B   0)    -72.0384         0.010000   
    177. D(B   0,B   8,B   7,B  11)    138.3616         0.010000   
    178. D(B   7,B   8,B   3,B   4)     -8.8102         0.034316   
    179. D(B   7,B   8,B   3,B   9)    -35.4865         0.034316   
    180. D(B   7,B   8,B   3,B   2)     48.9362         0.034316   
    181. D(B   0,B   8,B   3,B  10)   -138.6266         0.034316   
    182. D(B   0,B   8,B   3,B   9)    -89.0203         0.034316   
    183. D(B   0,B   8,B   3,B   4)    -62.3439         0.034316   
    184. D(B   0,B   8,B   3,B   2)     -4.5976         0.034316   
    185. D(B   3,B   8,B   7,B   6)      6.6180         0.010000   
    186. D(B   0,B   8,B   7,B   6)     78.6564         0.010000   
    187. D(B  10,B   8,B   0,B   7)     56.1482         0.010000   
    188. D(B  10,B   8,B   0,B   2)    -66.0673         0.010000   
    189. D(B   3,B   8,B   0,B   7)    126.2996         0.010000   
    190. D(B   7,B   8,B   0,B   2)   -122.2155         0.010000   
    191. D(B   3,B   8,B   0,B   2)      4.0842         0.010000   
    192. D(B   3,B   8,B   7,B  11)     66.3233         0.010000   
    193. D(B   5,B   9,B   6,B   1)    -40.9716         0.010000   
    194. D(B   4,B   9,B   6,B  11)   -141.7383         0.010000   
    195. D(B   4,B   9,B   6,B   7)    -92.0578         0.010000   
    196. D(B   4,B   9,B   6,B   5)     61.6132         0.010000   
    197. D(B   4,B   9,B   6,B   1)     20.6416         0.010000   
    198. D(B   3,B   9,B   6,B  11)    -93.5694         0.010000   
    199. D(B   3,B   9,B   6,B   7)    -43.8888         0.010000   
    200. D(B   3,B   9,B   6,B   1)     68.8105         0.010000   
    201. D(B  10,B   9,B   5,B   1)     39.6806         0.021592   
    202. D(B   6,B   9,B   5,B   4)    122.8605         0.021592   
    203. D(B   4,B   9,B   5,B   6)   -122.8605         0.021592   
    204. D(B   4,B   9,B   5,B   1)    -56.8131         0.021592   
    205. D(B   3,B   9,B   5,B   6)    -83.2775         0.021592   
    206. D(B   3,B   9,B   5,B   4)     39.5830         0.021592   
    207. D(B   3,B   9,B   5,B   1)    -17.2300         0.021592   
    208. D(B  10,B   9,B   4,B   2)    -78.1692         0.020252   
    209. D(B   6,B   9,B   4,B   5)    -42.8581         0.020252   
    210. D(B   6,B   9,B   4,B   3)     83.5223         0.020252   
    211. D(B   6,B   9,B   4,B   2)     23.2778         0.020252   
    212. D(B   5,B   9,B   4,B   3)    126.3804         0.020252   
    213. D(B   5,B   9,B   4,B   2)     66.1359         0.020252   
    214. D(B   6,B   9,B   5,B   1)     66.0475         0.021592   
    215. D(B   3,B   9,B   4,B   5)   -126.3804         0.020252   
    216. D(B   3,B   9,B   4,B   2)    -60.2445         0.020252   
    217. D(B   6,B   9,B   3,B   4)   -108.3837         0.010000   
    218. D(B   3,B   9,B   6,B   5)    109.7821         0.010000   
    219. D(B   6,B   9,B   3,B   2)    -54.2689         0.010000   
    220. D(B   5,B   9,B   3,B  10)    143.5904         0.010000   
    221. D(B   5,B   9,B   3,B   8)     95.3508         0.010000   
    222. D(B   5,B   9,B   3,B   4)    -58.2050         0.010000   
    223. D(B   5,B   9,B   3,B   2)     -4.0902         0.010000   
    224. D(B   4,B   9,B   3,B  10)   -158.2046         0.010000   
    225. D(B   4,B   9,B   3,B   8)    153.5558         0.010000   
    226. D(B   4,B   9,B   3,B   2)     54.1148         0.010000   
    227. D(B   3,B  10,B   8,B   0)     77.6966         0.011644   
    228. D(B  11,B  10,B   3,B   2)      0.5087         0.010000   
    229. D(B   9,B  10,B   3,B   8)    116.7271         0.010000   
    230. D(B   9,B  10,B   3,B   4)    -16.3470         0.010000   
    231. D(B   9,B  10,B   3,B   2)     45.3224         0.010000   
    232. D(B   8,B  10,B   3,B   9)   -116.7271         0.010000   
    233. D(B   8,B  10,B   3,B   4)   -133.0741         0.010000   
    234. D(B   3,B  10,B   8,B   7)    122.3423         0.011644   
    235. D(B   8,B  10,B   3,B   2)    -71.4047         0.010000   
    236. D(B   8,B  10,B   9,B   5)    -31.5565         0.010000   
    237. D(B   8,B  10,B   9,B   4)     59.1901         0.010000   
    238. D(B   8,B  10,B   9,B   3)     42.9221         0.010000   
    239. D(B   3,B  10,B   9,B  11)   -129.5655         0.010000   
    240. D(B   3,B  10,B   9,B   6)    -94.5381         0.010000   
    241. D(B   3,B  10,B   9,B   5)    -74.4786         0.010000   
    242. D(B   3,B  10,B   9,B   4)     16.2680         0.010000   
    243. D(B  11,B  10,B   8,B   0)    -37.7624         0.011644   
    244. D(B   9,B  10,B   8,B   7)     66.9837         0.011644   
    245. D(B   9,B  10,B   8,B   3)    -55.3586         0.011644   
    246. D(B   8,B  10,B   9,B   6)    -51.6160         0.010000   
    247. D(B   9,B  10,B   8,B   0)     22.3381         0.011644   
    248. D(B   7,B  11,B  10,B   9)   -102.2217         0.010000   
    249. D(B   7,B  11,B  10,B   8)     -7.5810         0.010000   
    250. D(B   7,B  11,B  10,B   3)    -53.9382         0.010000   
    251. D(B   6,B  11,B  10,B   9)    -49.3208         0.010000   
    252. D(B   6,B  11,B  10,B   8)     45.3199         0.010000   
    253. D(B   6,B  11,B  10,B   3)     -1.0373         0.010000   
    254. D(B   7,B  11,B   9,B   6)    -47.1300         0.010000   
    255. D(B   7,B  11,B   9,B   4)     23.4373         0.010000   
    256. D(B   7,B  11,B   9,B   3)     46.9131         0.010000   
    257. D(B   6,B  11,B   9,B  10)    133.4466         0.010000   
    258. D(B   6,B  11,B   9,B   5)    -17.8904         0.010000   
    259. D(B   6,B  11,B   9,B   4)     70.5673         0.010000   
    260. D(B   6,B  11,B   9,B   3)     94.0430         0.010000   
    261. D(B  10,B  11,B   7,B   0)     53.9309         0.010000   
    262. D(B   9,B  11,B   7,B   8)    -55.2628         0.010000   
    263. D(B   9,B  11,B   7,B   6)     57.2019         0.010000   
    264. D(B   9,B  11,B   7,B   0)     -7.7326         0.010000   
    265. D(B   6,B  11,B   7,B   8)   -112.4647         0.010000   
    266. D(B   7,B  11,B   9,B   5)    -65.0204         0.010000   
    267. D(B   6,B  11,B   7,B   0)    -64.9345         0.010000   
    268. D(B  10,B  11,B   6,B   1)     20.2309         0.010000   
    269. D(B   9,B  11,B   6,B   7)   -119.7105         0.010000   
    270. D(B   9,B  11,B   6,B   5)     16.6385         0.010000   
    271. D(B   9,B  11,B   6,B   1)    -24.6546         0.010000   
    272. D(B   7,B  11,B   6,B   9)    119.7105         0.010000   
    273. D(B   7,B  11,B   6,B   5)    136.3490         0.010000   
    274. D(B   7,B  11,B   6,B   1)     95.0559         0.010000   
    -----------------------------------------------------------------

Number of atoms                         .... 12
Number of degrees of freedom            .... 274


         *************************************************************
         *                GEOMETRY OPTIMIZATION CYCLE   1            *
         *************************************************************
---------------------------------
CARTESIAN COORDINATES (ANGSTROEM)
---------------------------------
  B      0.028358   -1.280494   -1.264041
  B     -1.568302    0.269956   -1.030457
  B     -1.250895   -1.086011    0.042182
  B     -0.083073   -1.055446    1.155498
  B     -1.251405   -0.118822    1.270325
  B     -1.216961    1.283875   -0.091078
  B      0.019024    1.068240   -1.075862
  B      1.230287    0.049586   -1.140506
  B      1.050468   -1.084604    0.308505
  B     -0.245766    0.942670    0.976357
  B      1.328300    0.019307    1.363833
  B      1.310446    1.233667    0.042606

----------------------------
CARTESIAN COORDINATES (A.U.)
----------------------------
  NO LB      ZA    FRAG     MASS         X           Y           Z
   0 B     5.0000    0    10.810    0.053589   -2.419783   -2.388691
   1 B     5.0000    0    10.810   -2.963661    0.510143   -1.947281
   2 B     5.0000    0    10.810   -2.363849   -2.052262    0.079712
   3 B     5.0000    0    10.810   -0.156986   -1.994505    2.183575
   4 B     5.0000    0    10.810   -2.364813   -0.224541    2.400567
   5 B     5.0000    0    10.810   -2.299723    2.426172   -0.172112
   6 B     5.0000    0    10.810    0.035950    2.018682   -2.033084
   7 B     5.0000    0    10.810    2.324905    0.093703   -2.155244
   8 B     5.0000    0    10.810    1.985097   -2.049605    0.582991
   9 B     5.0000    0    10.810   -0.464431    1.781388    1.845047
  10 B     5.0000    0    10.810    2.510124    0.036486    2.577271
  11 B     5.0000    0    10.810    2.476384    2.331293    0.080513

--------------------------------
INTERNAL COORDINATES (ANGSTROEM)
--------------------------------
 B      0   0   0     0.000000000000     0.00000000     0.00000000
 B      1   0   0     2.237806650929     0.00000000     0.00000000
 B      2   1   0     1.757824046409    53.15931815     0.00000000
 B      3   2   1     1.613757970223   122.48220925    80.69192431
 B      4   3   2     1.501815389697    60.10494806    65.15819235
 B      2   1   3     1.426149991272   112.67829086    79.92525550
 B      6   2   1     1.594978855762    71.82631133    47.63245808
 B      7   6   2     1.583980277103   134.80709624   276.46515652
 B      4   3   2     1.415331286062    99.57485835   290.69783738
 B      6   2   1     1.482921812944   118.15722945   334.37899449
 B      9   4   3     1.552265458096    73.84961689   134.02903414
 B      8   7   6     1.675776858204    63.47174611   286.43631930

---------------------------
INTERNAL COORDINATES (A.U.)
---------------------------
 B      0   0   0     0.000000000000     0.00000000     0.00000000
 B      1   0   0     4.228841710924     0.00000000     0.00000000
 B      2   1   0     3.321806039333    53.15931815     0.00000000
 B      3   2   1     3.049560610154   122.48220925    80.69192431
 B      4   3   2     2.838019790235    60.10494806    65.15819235
 B      2   1   3     2.695032909399   112.67829086    79.92525550
 B      6   2   1     3.014073226785    71.82631133    47.63245808
 B      7   6   2     2.993288925257   134.80709624   276.46515652
 B      4   3   2     2.674588519428    99.57485835   290.69783738
 B      6   2   1     2.802316104483   118.15722945   334.37899449
 B      9   4   3     2.933356602947    73.84961689   134.02903414
 B      8   7   6     3.166759323569    63.47174611   286.43631930

---------------------
BASIS SET INFORMATION
---------------------
There are 1 groups of distinct atoms

 Group   1 Type B   : 7s4p1d contracted to 3s2p1d pattern {511/31/1}

Atom   0B    basis set group =>   1
Atom   1B    basis set group =>   1
Atom   2B    basis set group =>   1
Atom   3B    basis set group =>   1
Atom   4B    basis set group =>   1
Atom   5B    basis set group =>   1
Atom   6B    basis set group =>   1
Atom   7B    basis set group =>   1
Atom   8B    basis set group =>   1
Atom   9B    basis set group =>   1
Atom  10B    basis set group =>   1
Atom  11B    basis set group =>   1
---------------------------------
AUXILIARY/J BASIS SET INFORMATION
---------------------------------
There are 1 groups of distinct atoms

 Group   1 Type B   : 12s5p4d2f1g contracted to 6s4p3d1f1g pattern {711111/2111/211/2/1}

Atom   0B    basis set group =>   1
Atom   1B    basis set group =>   1
Atom   2B    basis set group =>   1
Atom   3B    basis set group =>   1
Atom   4B    basis set group =>   1
Atom   5B    basis set group =>   1
Atom   6B    basis set group =>   1
Atom   7B    basis set group =>   1
Atom   8B    basis set group =>   1
Atom   9B    basis set group =>   1
Atom  10B    basis set group =>   1
Atom  11B    basis set group =>   1


           ************************************************************
           *        Program running with 8 parallel MPI-processes     *
           *              working on a common directory               *
           ************************************************************
------------------------------------------------------------------------------
                             ORCA STARTUP CALCULATIONS
                           -- RI-GTO INTEGRALS CHOSEN --
------------------------------------------------------------------------------
------------------------------------------------------------------------------
                   ___                                                        
                  /   \      - P O W E R E D   B Y -                         
                 /     \                                                     
                 |  |  |   _    _      __       _____    __    __             
                 |  |  |  | |  | |    /  \     |  _  \  |  |  /  |          
                  \  \/   | |  | |   /    \    | | | |  |  | /  /          
                 / \  \   | |__| |  /  /\  \   | |_| |  |  |/  /          
                |  |  |   |  __  | /  /__\  \  |    /   |      \           
                |  |  |   | |  | | |   __   |  |    \   |  |\   \          
                \     /   | |  | | |  |  |  |  | |\  \  |  | \   \       
                 \___/    |_|  |_| |__|  |__|  |_| \__\ |__|  \__/        
                                                                              
                      - O R C A' S   B I G   F R I E N D -                    
                                      &                                       
                       - I N T E G R A L  F E E D E R -                       
                                                                              
 v1 FN, 2020, v2 2021, v3 2022-2024                                           
------------------------------------------------------------------------------


----------------------
SHARK INTEGRAL PACKAGE
----------------------

Number of atoms                             ...     12
Number of basis functions                   ...    168
Number of shells                            ...     72
Maximum angular momentum                    ...      2
Integral batch strategy                     ... SHARK/LIBINT Hybrid
RI-J (if used) integral strategy            ... SPLIT-RIJ (Revised 2003 algorithm where possible)
Printlevel                                  ...      1
Contraction scheme used                     ... SEGMENTED contraction
Prescreening option                         ... SCHWARTZ
   Thresh                                   ... 2.500e-11
   Tcut                                     ... 2.500e-12
   Tpresel                                  ... 2.500e-12 
Coulomb Range Separation                    ... NOT USED
Exchange Range Separation                   ... NOT USED
Multipole approximations                    ... NOT USED
Finite Nucleus Model                        ... NOT USED
CABS basis                                  ... NOT available
Auxiliary Coulomb fitting basis             ... AVAILABLE
   # of basis functions in Aux-J            ...    588
   # of shells in Aux-J                     ...    180
   Maximum angular momentum in Aux-J        ...      4
Auxiliary J/K fitting basis                 ... NOT available
Auxiliary Correlation fitting basis         ... NOT available
Auxiliary 'external' fitting basis          ... NOT available

Checking pre-screening integrals            ... done (  0.0 sec) Dimension = 72
   => SHARK Basis and OBASIS are compatible. Storing Pre-screening
Shell pair information
Shell pair cut-off parameter TPreSel        ...   2.5e-12
Total number of shell pairs                 ...      2628
Shell pairs after pre-screening             ...      2593
Total number of primitive shell pairs       ...     10596
Primitive shell pairs kept                  ...      8192
          la=0 lb=0:    631 shell pairs
          la=1 lb=0:    864 shell pairs
          la=1 lb=1:    300 shell pairs
          la=2 lb=0:    432 shell pairs
          la=2 lb=1:    288 shell pairs
          la=2 lb=2:     78 shell pairs

Checking whether 4 symmetric matrices of dimension 168 fit in memory
:Max Core in MB      =   2500.00
 MB in use           =      6.96
 MB left             =   2493.04
 MB needed           =      0.43
 Data fit in memory  = YES
Calculating RI/J V-Matrix + Cholesky decomp.... done (  0.0 sec)
Calculating Nuclear repulsion               ... done (  0.0 sec) ENN=    388.002504188152 Eh

Diagonalization of the overlap matrix:
Smallest eigenvalue                        ... 2.499e-05
Time for diagonalization                   ...    0.005 sec
Threshold for overlap eigenvalues          ... 1.000e-07
Number of eigenvalues below threshold      ... 0
Time for construction of square roots      ...    0.008 sec
Total time needed                          ...    0.016 sec

-------------------
DFT GRID GENERATION
-------------------

General Integration Accuracy     IntAcc      ... 4.388
Radial Grid Type                 RadialGrid  ... OptM3 with GC (2021)
Angular Grid (max. ang.)         AngularGrid ... 4 (Lebedev-302)
Angular grid pruning method      GridPruning ... 4 (adaptive)
Weight generation scheme         WeightScheme... mBecke (2022)
Basis function cutoff            BFCut       ... 1.0000e-11
Integration weight cutoff        WCut        ... 1.0000e-14
Partially contracted basis set               ... off
Rotationally invariant grid construction     ... off
Angular grids for H and He will be reduced by one unit

Total number of grid points                  ...    69846
Total number of batches                      ...     1097
Average number of points per batch           ...       63
Average number of grid points per atom       ...     5820
Grids setup in   0.9 sec
Initializing property integral containers    ... done (  0.0 sec)

SHARK setup successfully completed in   1.1 seconds

Maximum memory used throughout the entire STARTUP-calculation: 19.8 MB


           ************************************************************
           *        Program running with 8 parallel MPI-processes     *
           *              working on a common directory               *
           ************************************************************
-------------------------------------------------------------------------------
                                 ORCA GUESS
                   Start orbitals & Density for SCF / CASSCF
-------------------------------------------------------------------------------

------------
SCF SETTINGS
------------
Hamiltonian:
 Density Functional     Method          .... DFT(GTOs)
 Exchange Functional    Exchange        .... B88
   X-Alpha parameter    XAlpha          ....  0.666667
   Becke's b parameter  XBeta           ....  0.004200
 Correlation Functional Correlation     .... P86
 LDA part of GGA corr.  LDAOpt          .... PW91-LDA
 Gradients option       PostSCFGGA      .... off
   NL short-range parameter             ....  4.400000
 RI-approximation to the Coulomb term is turned on
   Number of AuxJ basis functions       .... 588


General Settings:
 Integral files         IntName         .... cuboctahedron_nn1.70_perturb2
 Hartree-Fock type      HFTyp           .... RHF
 Total Charge           Charge          ....    0
 Multiplicity           Mult            ....    1
 Number of Electrons    NEL             ....   60
 Basis Dimension        Dim             ....  168
 Nuclear Repulsion      ENuc            ....    388.0025041882 Eh

Convergence Acceleration:
 AO-DIIS                CNVDIIS         .... on
   Start iteration      DIISMaxIt       ....     0
   Startup error        DIISStart       ....  0.200000
   # of expansion vecs  DIISMaxEq       ....     5
   Bias factor          DIISBfac        ....   1.050
   Max. coefficient     DIISMaxC        ....  10.000
 MO-DIIS                CNVKDIIS        .... off
 Trust-Rad. Augm. Hess. CNVTRAH         .... auto
   Auto Start mean grad. ratio tolernc. ....  1.125000
   Auto Start start iteration           ....    50
   Auto Start num. interpolation iter.  ....    10
   Max. Number of Micro iterations      ....    24
   Max. Number of Macro iterations      .... Maxiter - #DIIS iter
   Number of Davidson start vectors     ....     2
   Converg. threshold    (grad. norm)   ....   1.000e-05
   Grad. Scal. Fac. for Micro threshold ....   0.100
   Minimum threshold for Micro iter.    ....   1.000e-02
   NR start threshold (gradient norm)   ....   1.000e-04
   Initial trust radius                 ....   0.400
   Minimum AH scaling param. (alpha)    ....   1.000
   Maximum AH scaling param. (alpha)    .... 1000.000
   Quad. conv. algorithm                .... NR
   White noise on init. David. guess    .... on
   Maximum white noise                  ....   0.010
   Pseudo random numbers                .... off
   Inactive MOs                         .... canonical
   Orbital update algorithm             .... Taylor
   Preconditioner                       .... Diag
   Full preconditioner red. dimension   ....   250
 SOSCF                 CNVSOSCF           .... on
   Start iteration     SOSCFMaxIt         ....   150
   Startup grad/error  SOSCFStart         ....  0.001000
   Hessian update      SOSCFHessUp        .... L-BFGS
   Autom. constraints  SOSCFAutoConstrain .... off
 Level Shifting         CNVShift        .... on
   Level shift para.    LevelShift      ....    0.2500
   Turn off err/grad.   ShiftErr        ....    0.0000
 Zerner damping         CNVZerner       .... off
 Static damping         CNVDamp         .... on
   Fraction old density DampFac         ....    0.8500
   Max. Damping (<1)    DampMax         ....    0.9800
   Min. Damping (>=0)   DampMin         ....    0.0000
   Turn off err/grad.   DampErr         ....    0.0300

SCF Procedure:
 Maximum # iterations   MaxIter         ....   125
 SCF integral mode      SCFMode         .... Direct
   Integral package                     .... SHARK and LIBINT hybrid scheme
 Reset frequency        DirectResetFreq ....    20
 Integral Threshold     Thresh          ....  2.500e-11 Eh
 Primitive CutOff       TCut            ....  2.500e-12 Eh

Convergence Tolerance:
 Convergence Check Mode ConvCheckMode   .... Total+1el-Energy
 Convergence forced     ConvForced      .... 0
 Energy Change          TolE            ....  1.000e-08 Eh
 1-El. energy change                    ....  1.000e-05 Eh
 Orbital Gradient       TolG            ....  1.000e-05
 Orbital Rotation angle TolX            ....  1.000e-05
 DIIS Error             TolErr          ....  5.000e-07

------------------------------
INITIAL GUESS: MODEL POTENTIAL
------------------------------
Loading Hartree-Fock densities                     ... done
Calculating cut-offs                               ... done
Initializing the effective Hamiltonian             ... done
Setting up the integral package (SHARK)            ... done
Starting the Coulomb interaction                   ... done (   0.1 sec)
Making the grid                                    ... done (   0.2 sec)
Mapping shells                                     ... done
Starting the XC term evaluation                    ... done (   0.1 sec)
  promolecular density results
     # of electrons  =     60.000626982
     EX              =    -46.138744557
     EC              =     -2.060308190
     EX+EC           =    -48.199052747
Transforming the Hamiltonian                       ... done (   0.0 sec)
Diagonalizing the Hamiltonian                      ... done (   0.0 sec)
Back transforming the eigenvectors                 ... done (   0.0 sec)
Now organizing SCF variables                       ... done
                      ------------------
                      INITIAL GUESS DONE (   0.4 sec)
                      ------------------
             **** ENERGY FILE WAS UPDATED (cuboctahedron_nn1.70_perturb2.en.tmp) ****
Finished Guess after   0.9 sec
Maximum memory used throughout the entire GUESS-calculation: 9.8 MB


           ************************************************************
           *        Program running with 8 parallel MPI-processes     *
           *              working on a common directory               *
           ************************************************************

-------------------------------------------------------------------------------------------
                                      ORCA LEAN-SCF
                              memory conserving SCF solver
-------------------------------------------------------------------------------------------

----------------------------------------D-I-I-S--------------------------------------------
Iteration    Energy (Eh)           Delta-E    RMSDP     MaxDP     DIISErr   Damp  Time(sec)
-------------------------------------------------------------------------------------------
               ***  Starting incremental Fock matrix formation  ***
    1    -296.2492975958227248     0.00e+00  4.37e-02  3.56e-01  2.18e-01  0.850   0.5
Warning: op=0 Small HOMO/LUMO gap (  -0.007) - skipping pre-diagonalization
         Will do a full diagonalization
    2    -296.6619610834291620    -4.13e-01  3.77e-02  2.78e-01  1.29e-01  0.850   0.4
                               ***Turning on AO-DIIS***
    3    -296.7949005517820638    -1.33e-01  3.36e-02  4.34e-01  6.14e-02  0.850   0.5
    4    -296.8529183806655851    -5.80e-02  2.78e-02  4.03e-01  4.25e-02  0.850   0.3
    5    -296.9031436491989666    -5.02e-02  2.18e-02  3.41e-01  3.16e-02  0.850   0.4
    6    -296.9479152848512626    -4.48e-02  1.71e-02  2.68e-01  2.47e-02  0.850   0.4
    7    -296.9868874734864335    -3.90e-02  9.21e-02  1.40e+00  1.93e-02  0.000   1.2
    8    -297.2007135393319572    -2.14e-01  1.42e-02  1.13e-01  1.19e-02  0.000   0.5
    9    -297.2082092738231154    -7.50e-03  8.93e-03  9.32e-02  3.55e-03  0.000   0.3
   10    -297.2117793503825283    -3.57e-03  6.69e-03  5.96e-02  5.66e-03  0.000   0.4
   11    -297.2149338769997371    -3.15e-03  6.64e-03  5.92e-02  3.90e-03  0.000   0.4
   12    -297.2176723199563071    -2.74e-03  5.75e-03  4.98e-02  4.43e-03  0.000   0.5
   13    -297.2201195487284053    -2.45e-03  4.69e-03  4.18e-02  2.71e-03  0.000   0.4
   14    -297.2224133812335936    -2.29e-03  4.32e-03  3.75e-02  3.21e-03  0.000   0.5
   15    -297.2245835573118597    -2.17e-03  4.18e-03  3.42e-02  2.97e-03  0.000   0.5
   16    -297.2266448511806516    -2.06e-03  4.09e-03  3.88e-02  2.64e-03  0.000   0.4
   17    -297.2285583533167141    -1.91e-03  3.63e-03  3.55e-02  3.19e-03  0.000   0.3
   18    -297.2303795989650439    -1.82e-03  3.59e-03  3.70e-02  2.74e-03  0.000   0.5
   19    -297.2320765255878428    -1.70e-03  3.50e-03  4.00e-02  2.58e-03  0.000   0.4
   20    -297.2336499884389127    -1.57e-03  3.73e-03  4.67e-02  2.26e-03  0.000   0.7
               *** Restarting incremental Fock matrix formation ***
                             ****Resetting DIIS****
Warning: op=0 Small HOMO/LUMO gap (  -0.015) - skipping pre-diagonalization
         Will do a full diagonalization
   21    -297.2349965805843226    -1.35e-03  1.36e-02  1.66e-01  2.33e-03  0.000   0.5
   22    -297.2387869902299258    -3.79e-03  6.60e-03  8.35e-02  1.38e-02  0.000   0.4
   23    -297.2401552249220344    -1.37e-03  6.44e-03  7.96e-02  1.53e-02  0.000   0.4
   24    -297.2403649005868260    -2.10e-04  6.23e-03  7.41e-02  1.88e-02  0.000   0.7
   25    -297.2396235461908987     7.41e-04  5.89e-03  6.78e-02  2.27e-02  0.000   0.8
   26    -297.2380501254074829     1.57e-03  6.41e-03  5.38e-02  2.63e-02  0.000   0.7
   27    -297.2361038386479208     1.95e-03  6.41e-03  8.19e-02  2.85e-02  0.000   0.6
   28    -297.2386235988932981    -2.52e-03  5.81e-03  9.04e-02  2.60e-02  0.000   0.5
   29    -297.2418402704683444    -3.22e-03  1.18e-02  1.77e-01  1.92e-02  0.000   0.6
   30    -297.2473620500742868    -5.52e-03  4.61e-03  5.87e-02  4.76e-03  0.000   0.4
   31    -297.2475868479149881    -2.25e-04  2.12e-03  1.47e-02  4.54e-03  0.000   0.8
   32    -297.2479368155449606    -3.50e-04  1.32e-03  1.51e-02  1.97e-03  0.000   0.4
   33    -297.2480458806909951    -1.09e-04  1.09e-03  8.23e-03  1.01e-03  0.000   0.5
                              *** Initializing SOSCF ***
---------------------------------------S-O-S-C-F--------------------------------------
Iteration    Energy (Eh)           Delta-E    RMSDP     MaxDP     MaxGrad    Time(sec)
--------------------------------------------------------------------------------------
   34    -297.2481222921601898    -7.64e-05  1.13e-03  1.21e-02  8.61e-04     0.7
               *** Restarting incremental Fock matrix formation ***
   35    -297.2481854118646538    -6.31e-05  1.39e-03  1.89e-02  7.31e-04     0.4
   36    -297.2481936940167202    -8.28e-06  2.22e-03  3.03e-02  1.69e-03     0.3
   37    -297.2483256918032453    -1.32e-04  8.57e-03  8.83e-02  1.21e-03     0.4
   38    -297.2485900954979456    -2.64e-04  9.86e-03  9.70e-02  1.16e-03     0.5
   39    -297.2488402768203173    -2.50e-04  1.26e-02  1.03e-01  1.16e-03     0.4
   40    -297.2486841323283784     1.56e-04  6.29e-03  6.25e-02  4.05e-03     0.4
   41    -297.2490118022985257    -3.28e-04  3.02e-03  2.59e-02  1.02e-03     0.4
   42    -297.2490846676511751    -7.29e-05  3.98e-03  2.98e-02  1.16e-03     0.4
   43    -297.2492324075001875    -1.48e-04  1.57e-02  1.70e-01  8.18e-04     0.4
   44    -297.2493637606034440    -1.31e-04  3.47e-03  2.97e-02  3.87e-03     0.4
   45    -297.2496291800097765    -2.65e-04  8.61e-03  1.13e-01  1.66e-03     0.4
   46    -297.2498313946071562    -2.02e-04  7.24e-03  1.12e-01  1.71e-03     0.4
               *** Scaled step length from 0.202433 to 0.200000 ***
   47    -297.2499483415679720    -1.17e-04  2.04e-02  2.87e-01  1.32e-03     0.3
   48    -297.2496080612061746     3.40e-04  1.61e-02  2.30e-01  3.68e-03     0.3
   49    -297.2501338442135079    -5.26e-04  2.64e-03  1.93e-02  1.20e-03     0.4
   50    -297.2502313248922405    -9.75e-05  4.81e-03  6.63e-02  1.26e-03     0.6

       ******************************************************************************
       ***                                                                        ***
       ***                               Auto-TRAH                                ***
       ***                               ---------                                ***
       *** the maximum gradient error decreased on average only by a factor   1.0 ***
       *** during the last  10 iterations                                         ***
       ***                                                                        ***
       ***               Leaving SCF to start the TRAH-SCF procedure              ***
       ***                                                                        ***
       ******************************************************************************

 --------------------------------------------------------------------------------------------
   Iter.        energy            ||Error||_2        Shift      TRadius  Mac/Mic        Rej.
 --------------------------------------------------------------------------------------------
    0       -297.250482937888     3.018562e-02                     0.400 (TRAH MAcro)   No
WARNING: 1 diagonal Hessian elements are negative!
WARNING : negative HOMO - LUMO gap : -0.005636
WARNING : negative HOMO - LUMO gap : -0.005636
    0     dE    -5.677588e-05     1.805675e-02    -1.1353e-04      0.014 (TRAH MIcro)
    0     dE    -9.445858e-05     1.448097e-02    -1.8882e-04      0.023 (TRAH MIcro)
    0     dE    -1.322148e-04     1.150787e-02    -2.6422e-04      0.028 (TRAH MIcro)
    0     dE    -1.576151e-04     1.171668e-02    -3.1476e-04      0.038 (TRAH MIcro)
    0     dE    -1.771334e-04     9.961205e-03    -3.5335e-04      0.051 (TRAH MIcro)
    0     dE    -1.864640e-04     8.152704e-03    -3.7181e-04      0.055 (TRAH MIcro)
    0     dE    -2.001055e-04     7.947671e-03    -3.9843e-04      0.067 (TRAH MIcro)
    0     dE    -2.126636e-04     4.206843e-03    -4.2279e-04      0.078 (TRAH MIcro)
    0     dE    -2.143543e-04     2.090954e-03    -4.2598e-04      0.080 (TRAH MIcro)
    1       -297.250715305775     5.914657e-03                     0.480 (TRAH MAcro)   No
WARNING: 1 diagonal Hessian elements are negative!
WARNING : negative HOMO - LUMO gap : -0.006610
WARNING : negative HOMO - LUMO gap : -0.006610
    1     dE    -2.378620e-06     3.626682e-03    -4.7572e-06      0.002 (TRAH MIcro)
    1     dE    -3.706028e-06     2.635860e-03    -7.4120e-06      0.003 (TRAH MIcro)
    1     dE    -4.112689e-06     2.412071e-03    -8.2253e-06      0.003 (TRAH MIcro)
    1     dE    -4.516495e-06     1.846638e-03    -9.0329e-06      0.003 (TRAH MIcro)
    1     dE    -4.687451e-06     1.829407e-03    -9.3748e-06      0.004 (TRAH MIcro)
    1     dE    -4.987642e-06     1.790731e-03    -9.9750e-06      0.005 (TRAH MIcro)
    1     dE    -5.555061e-06     2.163891e-03    -1.1110e-05      0.007 (TRAH MIcro)
    1     dE    -6.499465e-06     2.526321e-03    -1.2997e-05      0.011 (TRAH MIcro)
    1     dE    -8.002703e-06     1.573409e-03    -1.6001e-05      0.017 (TRAH MIcro)
    1     dE    -8.273771e-06     8.174424e-04    -1.6542e-05      0.018 (TRAH MIcro)
    1     dE    -8.343006e-06     2.682800e-04    -1.6680e-05      0.019 (TRAH MIcro)
    2       -297.250723866481     4.104941e-04                     0.576 (TRAH MAcro)   No
WARNING: 1 diagonal Hessian elements are negative!
WARNING : negative HOMO - LUMO gap : -0.006852
WARNING : negative HOMO - LUMO gap : -0.006852
    2     dE    -9.523150e-10     3.766525e-04    -1.9046e-09      0.000 (TRAH MIcro)
    2     dE    -1.112878e-08     2.556110e-04    -2.2258e-08      0.000 (TRAH MIcro)
    2     dE    -1.829165e-08     1.709682e-04    -3.6583e-08      0.000 (TRAH MIcro)
    2     dE    -2.083737e-08     1.553243e-04    -4.1675e-08      0.000 (TRAH MIcro)
    2     dE    -2.330837e-08     9.563924e-05    -4.6617e-08      0.001 (TRAH MIcro)
    2     dE    -2.436809e-08     6.123639e-05    -4.8736e-08      0.001 (TRAH MIcro)
    2     dE    -2.469527e-08     3.289624e-05    -4.9391e-08      0.001 (TRAH MIcro)
    3       -297.250723891194     3.288859e-05                           (NR   MAcro)
WARNING: 1 diagonal Hessian elements are negative!
WARNING : negative HOMO - LUMO gap : -0.006870
    3     dE    -5.700123e-11     2.153497e-05                           (NR   MIcro)
    3     dE    -8.532720e-11     1.441834e-05                           (NR   MIcro)
    3     dE    -9.768145e-11     9.665600e-06                           (NR   MIcro)
    3     dE    -1.062189e-10     3.448851e-06                           (NR   MIcro)
    3     dE    -1.071300e-10     2.519844e-06                           (NR   MIcro)
    3     dE    -1.080299e-10     2.044062e-06                           (NR   MIcro)
    3     dE    -1.104890e-10     4.027457e-06                           (NR   MIcro)
    3     dE    -1.137234e-10     5.735587e-06                           (NR   MIcro)
    3     dE    -1.219641e-10     7.635582e-06                           (NR   MIcro)
    3     dE    -1.309154e-10     5.206714e-06                           (NR   MIcro)
    3     dE    -1.338811e-10     2.407234e-06                           (NR   MIcro)
    3     dE    -1.345131e-10     9.367317e-07                           (NR   MIcro)
    4       -297.250723891327     9.481324e-07                           (NR   MAcro)

               *****************************************************
               *                     SUCCESS                       *
               *           SCF CONVERGED AFTER  94 CYCLES          *
               *****************************************************

Warning: op=0 Small HOMO/LUMO gap (  -0.007) - skipping pre-diagonalization
             **** ENERGY FILE WAS UPDATED (cuboctahedron_nn1.70_perturb2.en.tmp) ****

----------------
TOTAL SCF ENERGY
----------------

Total Energy       :       -297.25072389132714 Eh           -8088.60341 eV

Components:
Nuclear Repulsion  :        388.00250418815205 Eh           10558.08490 eV
Electronic Energy  :       -685.25322807947919 Eh          -18646.68832 eV
One Electron Energy:      -1162.87756634798643 Eh          -31643.50731 eV
Two Electron Energy:        477.62433826850724 Eh           12996.81899 eV

Virial components:
Potential Energy   :       -591.67937544646702 Eh          -16100.41434 eV
Kinetic Energy     :        294.42865155513988 Eh            8011.81092 eV
Virial Ratio       :          2.00958491071192

DFT components:
N(Alpha)           :       30.000030060786 electrons
N(Beta)            :       30.000030060786 electrons
N(Total)           :       60.000060121571 electrons
E(X)               :      -46.596921836556 Eh       
E(C)               :       -2.088662509359 Eh       
E(XC)              :      -48.685584345915 Eh       

---------------
SCF CONVERGENCE
---------------

  Last Energy change         ...   -1.3347e-10  Tolerance :   1.0000e-08
  Last MAX-Density change    ...    1.1937e-01  Tolerance :   1.0000e-07
  Last RMS-Density change    ...    7.5807e-03  Tolerance :   5.0000e-09
  Last DIIS Error            ...    8.6060e-04  Tolerance :   5.0000e-07
  Last Orbital Gradient      ...    9.4813e-07  Tolerance :   1.0000e-05
  Last Orbital Rotation      ...    4.8619e-05  Tolerance :   1.0000e-05


----------------
ORBITAL ENERGIES
----------------

  NO   OCC          E(Eh)            E(eV) 
   0   2.0000      -6.615715      -180.0228 
   1   2.0000      -6.606862      -179.7819 
   2   2.0000      -6.599427      -179.5795 
   3   2.0000      -6.598010      -179.5410 
   4   2.0000      -6.590694      -179.3419 
   5   2.0000      -6.589185      -179.3008 
   6   2.0000      -6.587450      -179.2536 
   7   2.0000      -6.583282      -179.1402 
   8   2.0000      -6.574794      -178.9092 
   9   2.0000      -6.573406      -178.8715 
  10   2.0000      -6.558241      -178.4588 
  11   2.0000      -6.554111      -178.3464 
  12   2.0000      -0.767279       -20.8787 
  13   2.0000      -0.630248       -17.1499 
  14   2.0000      -0.626110       -17.0373 
  15   2.0000      -0.569441       -15.4953 
  16   2.0000      -0.503740       -13.7075 
  17   2.0000      -0.450090       -12.2476 
  18   2.0000      -0.431221       -11.7341 
  19   2.0000      -0.421242       -11.4626 
  20   2.0000      -0.410953       -11.1826 
  21   2.0000      -0.381142       -10.3714 
  22   2.0000      -0.354347        -9.6423 
  23   2.0000      -0.308567        -8.3965 
  24   2.0000      -0.289374        -7.8743 
  25   2.0000      -0.264835        -7.2065 
  26   2.0000      -0.249055        -6.7771 
  27   2.0000      -0.237132        -6.4527 
  28   2.0000      -0.200381        -5.4527 
  29   2.0000      -0.183632        -4.9969 
  30   0.0000      -0.190501        -5.1838 
  31   0.0000      -0.175125        -4.7654 
  32   0.0000      -0.174445        -4.7469 
  33   0.0000      -0.130774        -3.5585 
  34   0.0000      -0.120281        -3.2730 
  35   0.0000      -0.102685        -2.7942 
  36   0.0000      -0.096854        -2.6355 
  37   0.0000      -0.066615        -1.8127 
  38   0.0000      -0.059953        -1.6314 
  39   0.0000      -0.053166        -1.4467 
  40   0.0000       0.028244         0.7685 
*Only the first 10 virtual orbitals were printed.

                    ********************************
                    * MULLIKEN POPULATION ANALYSIS *
                    ********************************

-----------------------
MULLIKEN ATOMIC CHARGES
-----------------------
   0 B :   -0.131214
   1 B :   -0.620954
   2 B :    0.327400
   3 B :    0.102994
   4 B :   -0.225255
   5 B :    0.424955
   6 B :   -0.126059
   7 B :    0.103300
   8 B :    0.308461
   9 B :    0.290647
  10 B :   -0.463603
  11 B :    0.009328
Sum of atomic charges:    0.0000000

--------------------------------
MULLIKEN REDUCED ORBITAL CHARGES
--------------------------------
  0 B s       :     3.339259  s :     3.339259
      pz      :     0.561133  p :     1.743836
      px      :     0.617000
      py      :     0.565702
      dz2     :     0.011891  d :     0.048120
      dxz     :     0.009458
      dyz     :     0.007061
      dx2y2   :     0.010694
      dxy     :     0.009016

  1 B s       :     3.563132  s :     3.563132
      pz      :     0.652814  p :     2.001082
      px      :     0.561034
      py      :     0.787234
      dz2     :     0.012508  d :     0.056740
      dxz     :     0.009946
      dyz     :     0.013466
      dx2y2   :     0.012450
      dxy     :     0.008370

  2 B s       :     2.346892  s :     2.346892
      pz      :     0.826986  p :     2.258379
      px      :     0.703788
      py      :     0.727605
      dz2     :     0.015983  d :     0.067329
      dxz     :     0.012167
      dyz     :     0.014152
      dx2y2   :     0.014147
      dxy     :     0.010879

  3 B s       :     2.526407  s :     2.526407
      pz      :     0.618054  p :     2.290443
      px      :     0.877974
      py      :     0.794414
      dz2     :     0.015099  d :     0.080157
      dxz     :     0.016361
      dyz     :     0.014226
      dx2y2   :     0.018737
      dxy     :     0.015734

  4 B s       :     2.906145  s :     2.906145
      pz      :     0.776071  p :     2.245038
      px      :     0.678730
      py      :     0.790237
      dz2     :     0.016549  d :     0.074073
      dxz     :     0.014572
      dyz     :     0.016169
      dx2y2   :     0.017568
      dxy     :     0.009214

  5 B s       :     2.448040  s :     2.448040
      pz      :     0.742005  p :     2.052853
      px      :     0.758555
      py      :     0.552293
      dz2     :     0.017203  d :     0.074152
      dxz     :     0.012307
      dyz     :     0.014473
      dx2y2   :     0.015144
      dxy     :     0.015025

  6 B s       :     2.761808  s :     2.761808
      pz      :     0.650901  p :     2.297426
      px      :     0.840174
      py      :     0.806352
      dz2     :     0.013781  d :     0.066825
      dxz     :     0.011903
      dyz     :     0.011726
      dx2y2   :     0.015717
      dxy     :     0.013698

  7 B s       :     2.662447  s :     2.662447
      pz      :     0.764758  p :     2.175517
      px      :     0.680011
      py      :     0.730747
      dz2     :     0.013726  d :     0.058736
      dxz     :     0.010712
      dyz     :     0.012384
      dx2y2   :     0.013633
      dxy     :     0.008281

  8 B s       :     2.326086  s :     2.326086
      pz      :     0.763142  p :     2.285870
      px      :     0.801563
      py      :     0.721166
      dz2     :     0.018706  d :     0.079583
      dxz     :     0.018212
      dyz     :     0.015355
      dx2y2   :     0.014073
      dxy     :     0.013236

  9 B s       :     2.283178  s :     2.283178
      pz      :     0.801468  p :     2.339630
      px      :     0.857957
      py      :     0.680206
      dz2     :     0.018450  d :     0.086545
      dxz     :     0.014191
      dyz     :     0.015565
      dx2y2   :     0.021862
      dxy     :     0.016478

 10 B s       :     3.620189  s :     3.620189
      pz      :     0.553388  p :     1.785071
      px      :     0.559469
      py      :     0.672215
      dz2     :     0.014125  d :     0.058343
      dxz     :     0.010744
      dyz     :     0.011929
      dx2y2   :     0.013227
      dxy     :     0.008317

 11 B s       :     3.055094  s :     3.055094
      pz      :     0.710048  p :     1.874660
      px      :     0.548225
      py      :     0.616388
      dz2     :     0.013164  d :     0.060918
      dxz     :     0.013129
      dyz     :     0.010046
      dx2y2   :     0.013674
      dxy     :     0.010905



                     *******************************
                     * LOEWDIN POPULATION ANALYSIS *
                     *******************************

----------------------
LOEWDIN ATOMIC CHARGES
----------------------
   0 B :    0.072037
   1 B :    0.012748
   2 B :    0.040425
   3 B :   -0.096194
   4 B :    0.025331
   5 B :   -0.082611
   6 B :   -0.009792
   7 B :   -0.051181
   8 B :    0.004378
   9 B :    0.023387
  10 B :    0.006465
  11 B :    0.055007

-------------------------------
LOEWDIN REDUCED ORBITAL CHARGES
-------------------------------
  0 B s       :     2.831095  s :     2.831095
      pz      :     0.687457  p :     1.993546
      px      :     0.694110
      py      :     0.611978
      dz2     :     0.023029  d :     0.103322
      dxz     :     0.024905
      dyz     :     0.011242
      dx2y2   :     0.021114
      dxy     :     0.023032

  1 B s       :     2.739802  s :     2.739802
      pz      :     0.653639  p :     2.109438
      px      :     0.604370
      py      :     0.851428
      dz2     :     0.027625  d :     0.138012
      dxz     :     0.019016
      dyz     :     0.037585
      dx2y2   :     0.030581
      dxy     :     0.023205

  2 B s       :     2.641065  s :     2.641065
      pz      :     0.853100  p :     2.155939
      px      :     0.602196
      py      :     0.700643
      dz2     :     0.035765  d :     0.162571
      dxz     :     0.036558
      dyz     :     0.038577
      dx2y2   :     0.032119
      dxy     :     0.019552

  3 B s       :     2.595676  s :     2.595676
      pz      :     0.705111  p :     2.278787
      px      :     0.842712
      py      :     0.730964
      dz2     :     0.036848  d :     0.221732
      dxz     :     0.047932
      dyz     :     0.025765
      dx2y2   :     0.062523
      dxy     :     0.048665

  4 B s       :     2.600671  s :     2.600671
      pz      :     0.724768  p :     2.200770
      px      :     0.683954
      py      :     0.792049
      dz2     :     0.035506  d :     0.173228
      dxz     :     0.027871
      dyz     :     0.044115
      dx2y2   :     0.041800
      dxy     :     0.023936

  5 B s       :     2.617421  s :     2.617421
      pz      :     0.814633  p :     2.280421
      px      :     0.766057
      py      :     0.699730
      dz2     :     0.044402  d :     0.184770
      dxz     :     0.037190
      dyz     :     0.039850
      dx2y2   :     0.033659
      dxy     :     0.029669

  6 B s       :     2.625193  s :     2.625193
      pz      :     0.614134  p :     2.206776
      px      :     0.815809
      py      :     0.776832
      dz2     :     0.038248  d :     0.177823
      dxz     :     0.034026
      dyz     :     0.020107
      dx2y2   :     0.048435
      dxy     :     0.037006

  7 B s       :     2.656041  s :     2.656041
      pz      :     0.710465  p :     2.260105
      px      :     0.743952
      py      :     0.805688
      dz2     :     0.029558  d :     0.135036
      dxz     :     0.017891
      dyz     :     0.033951
      dx2y2   :     0.030682
      dxy     :     0.022954

  8 B s       :     2.624506  s :     2.624506
      pz      :     0.836110  p :     2.180007
      px      :     0.668650
      py      :     0.675248
      dz2     :     0.043090  d :     0.191109
      dxz     :     0.049265
      dyz     :     0.040897
      dx2y2   :     0.032513
      dxy     :     0.025344

  9 B s       :     2.585164  s :     2.585164
      pz      :     0.685322  p :     2.182647
      px      :     0.863794
      py      :     0.633530
      dz2     :     0.048755  d :     0.208802
      dxz     :     0.033068
      dyz     :     0.030084
      dx2y2   :     0.057960
      dxy     :     0.038935

 10 B s       :     2.817347  s :     2.817347
      pz      :     0.659292  p :     2.040367
      px      :     0.638764
      py      :     0.742311
      dz2     :     0.030190  d :     0.135822
      dxz     :     0.019989
      dyz     :     0.035136
      dx2y2   :     0.027749
      dxy     :     0.022757

 11 B s       :     2.714378  s :     2.714378
      pz      :     0.772194  p :     2.089383
      px      :     0.646863
      py      :     0.670326
      dz2     :     0.026589  d :     0.141231
      dxz     :     0.035846
      dyz     :     0.030122
      dx2y2   :     0.030545
      dxy     :     0.018130



                      *****************************
                      * MAYER POPULATION ANALYSIS *
                      *****************************

  NA   - Mulliken gross atomic population
  ZA   - Total nuclear charge
  QA   - Mulliken gross atomic charge
  VA   - Mayer's total valence
  BVA  - Mayer's bonded valence
  FA   - Mayer's free valence

  ATOM       NA         ZA         QA         VA         BVA        FA
  0 B      5.1312     5.0000    -0.1312     3.4692     3.4692     0.0000
  1 B      5.6210     5.0000    -0.6210     3.5336     3.5336     0.0000
  2 B      4.6726     5.0000     0.3274     3.4813     3.4813    -0.0000
  3 B      4.8970     5.0000     0.1030     4.2045     4.2045     0.0000
  4 B      5.2253     5.0000    -0.2253     4.7028     4.7028     0.0000
  5 B      4.5750     5.0000     0.4250     3.3585     3.3585     0.0000
  6 B      5.1261     5.0000    -0.1261     4.0694     4.0694     0.0000
  7 B      4.8967     5.0000     0.1033     4.2631     4.2631     0.0000
  8 B      4.6915     5.0000     0.3085     3.3838     3.3838    -0.0000
  9 B      4.7094     5.0000     0.2906     3.5488     3.5488     0.0000
 10 B      5.4636     5.0000    -0.4636     3.5375     3.5375     0.0000
 11 B      4.9907     5.0000     0.0093     3.8212     3.8212     0.0000

  Mayer bond orders larger than 0.100000
B(  0-B ,  1-B ) :   0.4346 B(  0-B ,  2-B ) :   0.7247 B(  0-B ,  3-B ) :   0.1340 
B(  0-B ,  4-B ) :   0.1764 B(  0-B ,  6-B ) :   0.3915 B(  0-B ,  7-B ) :   0.8868 
B(  0-B ,  8-B ) :   0.3366 B(  0-B ,  9-B ) :   0.1120 B(  0-B , 10-B ) :   0.1715 
B(  0-B , 11-B ) :   0.1273 B(  1-B ,  2-B ) :   0.2885 B(  1-B ,  3-B ) :   0.1747 
B(  1-B ,  4-B ) :   0.5945 B(  1-B ,  5-B ) :   0.3763 B(  1-B ,  6-B ) :   0.8736 
B(  1-B ,  7-B ) :   0.1252 B(  1-B ,  9-B ) :   0.2077 B(  1-B , 10-B ) :   0.3368 
B(  2-B ,  3-B ) :   0.6987 B(  2-B ,  4-B ) :   0.8198 B(  2-B ,  5-B ) :   0.1816 
B(  2-B ,  8-B ) :   0.2855 B(  2-B , 10-B ) :   0.1467 B(  2-B , 11-B ) :   0.1305 
B(  3-B ,  4-B ) :   0.9000 B(  3-B ,  5-B ) :   0.1239 B(  3-B ,  6-B ) :   0.1523 
B(  3-B ,  7-B ) :   0.2553 B(  3-B ,  8-B ) :   0.8001 B(  3-B ,  9-B ) :   0.3460 
B(  3-B , 10-B ) :   0.6271 B(  4-B ,  5-B ) :   0.6575 B(  4-B ,  7-B ) :   0.1271 
B(  4-B ,  8-B ) :   0.2911 B(  4-B ,  9-B ) :   0.6516 B(  4-B , 10-B ) :   0.2781 
B(  4-B , 11-B ) :   0.1111 B(  5-B ,  6-B ) :   0.5829 B(  5-B ,  7-B ) :   0.1764 
B(  5-B ,  8-B ) :   0.1231 B(  5-B ,  9-B ) :   0.7998 B(  5-B , 11-B ) :   0.2997 
B(  6-B ,  7-B ) :   0.6900 B(  6-B ,  8-B ) :   0.1769 B(  6-B ,  9-B ) :   0.2642 
B(  6-B , 10-B ) :   0.1017 B(  6-B , 11-B ) :   0.6753 B(  7-B ,  8-B ) :   0.5751 
B(  7-B ,  9-B ) :   0.1179 B(  7-B , 10-B ) :   0.2433 B(  7-B , 11-B ) :   0.9996 
B(  8-B ,  9-B ) :   0.1111 B(  8-B , 10-B ) :   0.4892 B(  8-B , 11-B ) :   0.1657 
[...]
      px      :     0.790442
      py      :     0.805128
      dz2     :     0.011160  d :     0.060946
      dxz     :     0.009984
      dyz     :     0.011431
      dx2y2   :     0.013463
      dxy     :     0.014909

 10 B s       :     2.840976  s :     2.840976
      pz      :     0.594020  p :     2.067987
      px      :     0.767362
      py      :     0.706604
      dz2     :     0.012836  d :     0.051142
      dxz     :     0.013318
      dyz     :     0.007950
      dx2y2   :     0.009298
      dxy     :     0.007740

 11 B s       :     3.220896  s :     3.220896
      pz      :     0.928801  p :     1.893050
      px      :     0.534917
      py      :     0.429332
      dz2     :     0.008086  d :     0.048187
      dxz     :     0.012796
      dyz     :     0.009535
      dx2y2   :     0.008734
      dxy     :     0.009036



                     *******************************
                     * LOEWDIN POPULATION ANALYSIS *
                     *******************************

----------------------
LOEWDIN ATOMIC CHARGES
----------------------
   0 B :   -0.025813
   1 B :   -0.005065
   2 B :   -0.047954
   3 B :   -0.025402
   4 B :   -0.004482
   5 B :   -0.018023
   6 B :    0.055177
   7 B :   -0.077841
   8 B :    0.100707
   9 B :    0.052282
  10 B :   -0.076381
  11 B :    0.072795

-------------------------------
LOEWDIN REDUCED ORBITAL CHARGES
-------------------------------
  0 B s       :     2.595707  s :     2.595707
      pz      :     0.713683  p :     2.251882
      px      :     0.783746
      py      :     0.754454
      dz2     :     0.039876  d :     0.178224
      dxz     :     0.040063
      dyz     :     0.025524
      dx2y2   :     0.035001
      dxy     :     0.037760

  1 B s       :     2.590203  s :     2.590203
      pz      :     0.793890  p :     2.226187
      px      :     0.645167
      py      :     0.787131
      dz2     :     0.040707  d :     0.188675
      dxz     :     0.029622
      dyz     :     0.041220
      dx2y2   :     0.034876
      dxy     :     0.042250

  2 B s       :     2.584783  s :     2.584783
      pz      :     0.828071  p :     2.288201
      px      :     0.702537
      py      :     0.757593
      dz2     :     0.030550  d :     0.174970
      dxz     :     0.033992
      dyz     :     0.045319
      dx2y2   :     0.030330
      dxy     :     0.034779

  3 B s       :     2.594837  s :     2.594837
      pz      :     0.714827  p :     2.252154
      px      :     0.780535
      py      :     0.756792
      dz2     :     0.039101  d :     0.178412
      dxz     :     0.040445
      dyz     :     0.026498
      dx2y2   :     0.035027
      dxy     :     0.037341

  4 B s       :     2.589522  s :     2.589522
      pz      :     0.796487  p :     2.225840
      px      :     0.639701
      py      :     0.789653
      dz2     :     0.040801  d :     0.189120
      dxz     :     0.030297
      dyz     :     0.040962
      dx2y2   :     0.034665
      dxy     :     0.042395

  5 B s       :     2.663996  s :     2.663996
      pz      :     0.823482  p :     2.213230
      px      :     0.637639
      py      :     0.752109
      dz2     :     0.027348  d :     0.140797
      dxz     :     0.024612
      dyz     :     0.041608
      dx2y2   :     0.024331
      dxy     :     0.022897

  6 B s       :     2.686017  s :     2.686017
      pz      :     0.526185  p :     2.109744
      px      :     0.785903
      py      :     0.797657
      dz2     :     0.027182  d :     0.149062
      dxz     :     0.026784
      dyz     :     0.021013
      dx2y2   :     0.034474
      dxy     :     0.039609

  7 B s       :     2.681767  s :     2.681767
      pz      :     0.682107  p :     2.264416
      px      :     0.805924
      py      :     0.776385
      dz2     :     0.033409  d :     0.131657
      dxz     :     0.028401
      dyz     :     0.021184
      dx2y2   :     0.024468
      dxy     :     0.024195

  8 B s       :     2.559444  s :     2.559444
      pz      :     0.785289  p :     2.090296
      px      :     0.733532
      py      :     0.571475
      dz2     :     0.045222  d :     0.249553
      dxz     :     0.068707
      dyz     :     0.053646
      dx2y2   :     0.045225
      dxy     :     0.036752

  9 B s       :     2.685547  s :     2.685547
      pz      :     0.534571  p :     2.113431
      px      :     0.783639
      py      :     0.795221
      dz2     :     0.028169  d :     0.148740
      dxz     :     0.026294
      dyz     :     0.020971
      dx2y2   :     0.034086
      dxy     :     0.039219

 10 B s       :     2.681972  s :     2.681972
      pz      :     0.678683  p :     2.262788
      px      :     0.810852
      py      :     0.773253
      dz2     :     0.032697  d :     0.131621
      dxz     :     0.028291
      dyz     :     0.021498
      dx2y2   :     0.025032
      dxy     :     0.024102

 11 B s       :     2.775275  s :     2.775275
      pz      :     0.965268  p :     2.034725
      px      :     0.564668
      py      :     0.504789
      dz2     :     0.023019  d :     0.117204
      dxz     :     0.031133
      dyz     :     0.023631
      dx2y2   :     0.015015
      dxy     :     0.024407



                      *****************************
                      * MAYER POPULATION ANALYSIS *
                      *****************************

  NA   - Mulliken gross atomic population
  ZA   - Total nuclear charge
  QA   - Mulliken gross atomic charge
  VA   - Mayer's total valence
  BVA  - Mayer's bonded valence
  FA   - Mayer's free valence

  ATOM       NA         ZA         QA         VA         BVA        FA
  0 B      4.8691     5.0000     0.1309     4.0426     4.0426     0.0000
  1 B      4.8379     5.0000     0.1621     3.9638     3.9638     0.0000
  2 B      4.9969     5.0000     0.0031     4.2662     4.2662     0.0000
  3 B      4.8658     5.0000     0.1342     4.0438     4.0438     0.0000
  4 B      4.8368     5.0000     0.1632     3.9626     3.9626     0.0000
  5 B      4.9870     5.0000     0.0130     4.1193     4.1193     0.0000
  6 B      5.2211     5.0000    -0.2211     4.2685     4.2685     0.0000
  7 B      4.9574     5.0000     0.0426     4.0398     4.0398     0.0000
  8 B      5.0873     5.0000    -0.0873     3.8926     3.8926    -0.0000
  9 B      5.2183     5.0000    -0.2183     4.2764     4.2764     0.0000
 10 B      4.9601     5.0000     0.0399     4.0448     4.0448     0.0000
 11 B      5.1621     5.0000    -0.1621     3.6217     3.6217    -0.0000

  Mayer bond orders larger than 0.100000
B(  0-B ,  1-B ) :   0.6741 B(  0-B ,  2-B ) :   0.7657 B(  0-B ,  3-B ) :   0.2214 
B(  0-B ,  4-B ) :   0.2034 B(  0-B ,  5-B ) :   0.1484 B(  0-B ,  6-B ) :   0.5386 
B(  0-B ,  7-B ) :   0.5885 B(  0-B ,  8-B ) :   0.5691 B(  0-B , 10-B ) :   0.1847 
B(  1-B ,  2-B ) :   0.5522 B(  1-B ,  3-B ) :   0.2051 B(  1-B ,  4-B ) :   0.8143 
B(  1-B ,  5-B ) :   0.5337 B(  1-B ,  6-B ) :   0.5868 B(  1-B ,  7-B ) :   0.1175 
B(  1-B ,  8-B ) :   0.1719 B(  1-B ,  9-B ) :   0.1637 B(  2-B ,  3-B ) :   0.7667 
B(  2-B ,  4-B ) :   0.5530 B(  2-B ,  5-B ) :   0.3087 B(  2-B ,  6-B ) :   0.1402 
B(  2-B ,  7-B ) :   0.1736 B(  2-B ,  8-B ) :   0.6044 B(  2-B ,  9-B ) :   0.1429 
B(  2-B , 10-B ) :   0.1762 B(  3-B ,  4-B ) :   0.6709 B(  3-B ,  5-B ) :   0.1488 
B(  3-B ,  7-B ) :   0.1873 B(  3-B ,  8-B ) :   0.5737 B(  3-B ,  9-B ) :   0.5392 
B(  3-B , 10-B ) :   0.5837 B(  4-B ,  5-B ) :   0.5310 B(  4-B ,  6-B ) :   0.1631 
B(  4-B ,  8-B ) :   0.1753 B(  4-B ,  9-B ) :   0.5868 B(  4-B , 10-B ) :   0.1187 
B(  5-B ,  6-B ) :   1.0870 B(  5-B ,  7-B ) :   0.1054 B(  5-B ,  9-B ) :   1.0885 
B(  5-B , 10-B ) :   0.1059 B(  6-B ,  7-B ) :   0.9442 B(  6-B ,  8-B ) :   0.1526 
B(  6-B ,  9-B ) :   0.3020 B(  6-B , 11-B ) :   0.2364 B(  7-B ,  8-B ) :   0.4913 
B(  7-B , 10-B ) :   0.1324 B(  7-B , 11-B ) :   1.1815 B(  8-B ,  9-B ) :   0.1516 
B(  8-B , 10-B ) :   0.4902 B(  8-B , 11-B ) :   0.4525 B(  9-B , 10-B ) :   0.9519 
B(  9-B , 11-B ) :   0.2320 B( 10-B , 11-B ) :   1.1823 

-------
TIMINGS
-------

Total SCF time: 0 days 0 hours 0 min 4 sec 

Total time                  ....       4.146 sec
Sum of individual times     ....       3.710 sec  ( 89.5%)

SCF preparation             ....       0.796 sec  ( 19.2%)
Fock matrix formation       ....       2.374 sec  ( 57.2%)
  Startup                   ....       0.010 sec  (  0.4% of F)
  Split-RI-J                ....       0.710 sec  ( 29.9% of F)
  XC integration            ....       1.802 sec  ( 75.9% of F)
    XC Preparation          ....       0.000 sec  (  0.0% of XC)
    Basis function eval.    ....       0.329 sec  ( 18.3% of XC)
    Density eval.           ....       0.259 sec  ( 14.4% of XC)
    XC-Functional eval.     ....       0.037 sec  (  2.0% of XC)
    XC-Potential eval.      ....       0.364 sec  ( 20.2% of XC)
Diagonalization             ....       0.000 sec  (  0.0%)
Density matrix formation    ....       0.070 sec  (  1.7%)
Total Energy calculation    ....       0.043 sec  (  1.0%)
Population analysis         ....       0.134 sec  (  3.2%)
Orbital Transformation      ....       0.019 sec  (  0.5%)
Orbital Orthonormalization  ....       0.000 sec  (  0.0%)
DIIS solution               ....       0.054 sec  (  1.3%)
SOSCF solution              ....       0.220 sec  (  5.3%)
Finished LeanSCF after   4.3 sec

Maximum memory used throughout the entire LEANSCF-calculation: 11.9 MB


-------------------------------------------------------------------------------
                          DFT DISPERSION CORRECTION                            
                                                                               
                              DFTD3 V3.1  Rev 1                                
                          USING Becke-Johnson damping                          
-------------------------------------------------------------------------------
The BP86 functional is recognized
Active option DFTDOPT                   ...         4   

molecular C6(AA) [au] = 4094.864953 


            DFT-D V3
 parameters
 s6 scaling factor         :     1.0000 
 a1 scaling factor         :     0.3946 
 s8 scaling factor         :     3.2822 
 a2 scaling factor         :     4.8516 
 ad hoc parameters k1-k3   :    16.0000     1.3333    -4.0000 

 Edisp/kcal,au: -23.635867433876  -0.037666148305 
 E6   /kcal   :  -6.718984687 
 E8   /kcal   : -16.916882746 
 % E8         :  71.572929547 

-------------------------   ----------------
Dispersion correction           -0.037666148
-------------------------   ----------------


-------------------------   --------------------
FINAL SINGLE POINT ENERGY      -297.665999571197
-------------------------   --------------------

                                *** OPTIMIZATION RUN DONE ***



           ************************************************************
           *        Program running with 8 parallel MPI-processes     *
           *              working on a common directory               *
           ************************************************************

------------------------------------------------------------------------------
                              ORCA PROPERTY CALCULATIONS
------------------------------------------------------------------------------

GBWName                                 ... cuboctahedron_nn1.70_perturb2.gbw
Number of atoms                         ...     12
Number of basis functions               ...    168
Max core memory                         ...   2500 MB

Electric properties:
Dipole moment                           ... YES
Quadrupole moment                       ...  NO
Static polarizability (Dipole/Dipole)   ...  NO
Static polarizability (Dipole/Quad.)    ...  NO
Static polarizability (Quad./Quad.)     ...  NO
Static polarizability (Velocity)        ...  NO
Static hyperpolarizability              ...  NO

Atomic electric properties:
Dipole moment                           ...  NO
Quadrupole moment                       ...  NO
Static polarizability                   ...  NO

Choice of electric origin               ... Center of mass
Position of electric origin             ...    -0.102284     0.038098     0.087772

General magnetic properties:
Magnetizability                         ...  NO

EPR properties:
g-Tensor (aka g-matrix)                 ...  NO
Zero-Field splitting spin-orbit         ...  NO
Zero-field splitting spin-spin          ...  NO
Hyperfine couplings                     ...  NO (   0 nuclei)
Quadrupole couplings                    ...  NO (   0 nuclei)
Contact density                         ...  NO (   0 nuclei)

NMR properties:
Chemical shifts                         ...  NO (   0 nuclei)
Spin-rotation constants                 ...  NO (   0 nuclei)
Spin-spin couplings                     ...  NO (   0 nuclei,    0 pairs)

Choice of magnetic origin               ... GIAO
Position of magnetic origin             ...     0.000000     0.000000     0.000000

Properties with geometric perturbations:
SCF Hessian                             ...  NO
IR spectrum                             ...  NO
VCD spectrum                            ...  NO
X-ray spectroscopy properties:
SCF XES/XAS/RIXS spectra                ...  NO

SCF SOC stabilization energy            ...  NO
Diagonal Born-Oppenheimer correction    ...  NO

-------------
DIPOLE MOMENT
-------------

Method             : SCF
Type of density    : Electron Density
Multiplicity       :   1
Irrep              :   0
Energy             :  -297.6283334228922399 Eh
Basis              : AO
                                X                 Y                 Z
Electronic contribution:     -0.364910255      -0.411745477       0.002993492
Nuclear contribution   :      0.000000000      -0.000000000      -0.000000000
                        -----------------------------------------
Total Dipole Moment    :     -0.364910255      -0.411745477       0.002993492
                        -----------------------------------------
Magnitude (a.u.)       :      0.550184327
Magnitude (Debye)      :      1.398457421



--------------------
Rotational spectrum 
--------------------
 
Rotational constants in cm-1:             0.074025             0.069671             0.058239 
Rotational constants in MHz :          2219.209532          2088.695184          1745.953329 

Dipole components along the rotational axes: 
x,y,z [a.u.] :    -0.360826     0.003429    -0.415326 
x,y,z [Debye]:    -0.917147     0.008716    -1.055675 

 

Dipole moment calculation done in   0.0 sec 

Maximum memory used throughout the entire PROP-calculation: 9.6 MB

--------------------------------
SUGGESTED CITATIONS FOR THIS RUN
--------------------------------

Below you find a list of papers that are relevant to this ORCA run
We neither can nor want to force you to cite these papers, but we appreciate if you do
You receive ORCA, which is the product of decades of hard work by many enthusiastic individuals, for free
The only thing we kindly ask in return is that you cite our papers,
We deeply appreciate it, if you show your appreciation for ORCA by not just citing the generic ORCA reference.

Please note that relegating all ORCA citations to the supporting information does *not* help us.
SI sections are not indexed - citations you put there will not count into any citation statistics
But we need these citations in order to attract the funding resources that allow us to do what we are doing

Therefore, if you are a happy ORCA user, please consider citing a few of the papers listed below in the main body of your paper

In addition to the list printed below, the program has created the file cuboctahedron_nn1.70_perturb2.bibtex that contains the list in bibtex format
You can import this file easily into all common literature databanks and citation aid programs

It goes without saying that in many instances, there are alternative algorithms to achieve similar
results as the ones you have gotten from ORCA. It is, of course, also the case that in some instances
ORCA just re-implements algorithms worked out by others. We are fully aware of that and we are also
fully appreciative of our colleagues work. Hence this citation list should not be read as indicating
that the listed papers, which are focused on our own work, are the only ones worth citing. It simply
meant to make it easier for users to cite ORCA specific papers. It is not a substitute for doing your
own literature research and citing the relevant literature in a scientifically appropriate manner.

List of essential papers. We consider these as the minimum necessary citations

  1. Neese, F.
     Software update: the ORCA program system, version 6.0
     WIRES Comput. Molec. Sci. 2025 15(1), e70019
     doi.org/10.1002/wcms.70019

List of papers to cite with high priority. The work reported in these papers was absolutely
necessary for this run to complete.
Our perspective: the developers of density functionals and basis sets usually get cited in chemistry papers
Good! But without the algorithms to do something with them, the functionals or basis sets would not do anything.
Hence, in our opinion, the algorithm design and method developments papers are equally worthy of getting cited

  1. Neese, F.
     An improvement of the resolution of the identity approximation for the formation of the Coulomb matrix
     J. Comp. Chem. 2003 24(14), 1740-1747
     doi.org/10.1002/jcc.10318
  2. Grimme, S.; Antony, J.; Ehrlich, S.; Krieg, H.
     A consistent and accurate ab initio parametrization of density functional dispersion correction (DFT-D) for the 94 elements H-Pu
     J. Chem. Phys. 2010 132 , 154104
     doi.org/10.1063/1.3382344
  3. Grimme, S.; Ehrlich, S.; Goerigk, L.
     Effect of the damping function in dispersion corrected density functional theory
     J. Comput. Chem. 2011 32(7), 1456-1465
     doi.org/10.1002/jcc.21759
  4. Helmich-Paris, B.
     A trust-region augmented Hessian implementation for restricted and unrestricted Hartree–Fock and Kohn–Sham methods
     J. Chem. Phys. 2021 154 , 164104
     doi.org/10.1063/5.0040798
  5. Neese, F.
     The SHARK Integral Generation and Digestion System
     J. Comp. Chem. 2022 44(3), 381
     doi.org/10.1002/jcc.26942

List of suggested additional citations. These are papers that are important in the 'surrounding' of 
of this run, or papers that preceded the highly important papers. If you like your results we are grateful for a citation.

  1. Neese, F.
     The ORCA program system
     WIRES Comput. Molec. Sci. 2012 2(1), 73-78
     doi.org/10.1002/wcms.81
  2. Neese, F.
     Software update: the ORCA program system, version 4.0
     WIRES Comput. Molec. Sci. 2018 8(1), 1-6
     doi.org/10.1002/wcms.1327
  3. Neese, F.; Wennmohs, F.; Becker, U.; Riplinger, C.
     The ORCA quantum chemistry program package
     J. Chem. Phys. 2020 152(22), 224108
     doi.org/10.1063/5.0004608
  4. Neese, F.
     Software update: The ORCA program system—Version 5.0
     WIRES Comput. Molec. Sci. 2022 12(1), e1606
     doi.org/10.1002/wcms.1606

List of optional additional citations

  1. Neese, F.
     Approximate second-order SCF convergence for spin unrestricted wavefunctions
     Chem. Phys. Lett. 2000 325(1-3), 93-98
     doi.org/10.1016/s0009-2614(00)00662-x

Timings for individual modules:

Sum of individual times          ...      583.080 sec (=   9.718 min)
Startup calculation              ...       68.140 sec (=   1.136 min)  11.7 %
SCF iterations                   ...      415.282 sec (=   6.921 min)  71.2 %
Property calculations            ...        0.787 sec (=   0.013 min)   0.1 %
SCF Gradient evaluation          ...       97.834 sec (=   1.631 min)  16.8 %
Geometry relaxation              ...        1.038 sec (=   0.017 min)   0.2 %
                             ****ORCA TERMINATED NORMALLY****
TOTAL RUN TIME: 0 days 0 hours 10 minutes 14 seconds 437 msec
