
                                 *****************
                                 * O   R   C   A *
                                 *****************

                                            #,                                       
                                            ###                                      
                                            ####                                     
                                            #####                                    
                                            ######                                   
                                           ########,                                 
                                     ,,################,,,,,                         
                               ,,#################################,,                 
                          ,,##########################################,,             
                       ,#########################################, ''#####,          
                    ,#############################################,,   '####,        
                  ,##################################################,,,,####,       
                ,###########''''           ''''###############################       
              ,#####''   ,,,,##########,,,,          '''####'''          '####       
            ,##' ,,,,###########################,,,                        '##       
           ' ,,###''''                  '''############,,,                           
         ,,##''                                '''############,,,,        ,,,,,,###''
      ,#''                                            '''#######################'''  
     '                                                          ''''####''''         
             ,#######,   #######,   ,#######,      ##                                
            ,#'     '#,  ##    ##  ,#'     '#,    #''#        ,####,    ,#,          
            ##       ##  ##   ,#'  ##            #'  '#       #'       ,# #          
            ##       ##  #######   ##           ,######,      #####,      #          
            '#,     ,#'  ##    ##  '#,     ,#' ,#      #,     #,   #      #          
             '#######'   ##     ##  '#######'  #'      '#     '####' #    #          



                #########################################################
                #                        -***-                          #
                #          Department of theory and spectroscopy        #
                #                                                       #
                #                      Frank Neese                      #
                #                                                       #
                #     Directorship, Architecture, Infrastructure        #
                #                    SHARK, DRIVERS                     #
                #        Core code/Algorithms in most modules           #
                #                                                       #
                #        Max Planck Institute fuer Kohlenforschung      #
                #                Kaiser Wilhelm Platz 1                 #
                #                 D-45470 Muelheim/Ruhr                 #
                #                      Germany                          #
                #                                                       #
                #                  All rights reserved                  #
                #                        -***-                          #
                #########################################################


                         Program Version 6.1.1  -  RELEASE   -
                                (GIT: $487d211c$)
                          ($2025-11-21 10:33:24 +0100$)
                                                                         
                                  - NO-DMRG VERSION -                    
                                                                         


 With contributions from (in alphabetic order):
[Max-Planck-Institut fuer Kohlenforschung]                               
  Daniel Aravena         : Magnetic Suceptibility                        
  Michael Atanasov       : Ab Initio Ligand Field Theory (pilot matlab implementation)
  Alexander A. Auer      : GIAO ZORA, VPT2 properties, NMR spectrum      
  Ute Becker             : All parallelization in ORCA, NUMFREQ, NUMCALC 
  Giovanni Bistoni       : ED, misc. LED, open-shell LED, HFLD           
  Dmytro Bykov           : pre 5.0 version of the SCF Hessian            
  Marcos Casanova-Páez   : Triplet and SCS-CIS(D). UHF-(DLPNO)-IP/EA/STEOM-CCSD. UHF-CVS-IP/STEOM-CCSD   
  Vijay G. Chilkuri      : MRCI spin determinant printing, contributions to CSF-ICE 
  Pauline Colinet        : FMM embedding                                 
  Dipayan Datta          : RHF DLPNO-CCSD density                        
  Achintya Kumar Dutta   : EOM-CC, STEOM-CC                              
  Nicolas Foglia         : Exact transition moments, OPA infrastructure, MCD improvements    
  Dmitry Ganyushin       : Spin-Orbit,Spin-Spin,Magnetic field MRCI      
  Miquel Garcia-Rates    : C-PCM and meta-GGA Hessian, CCSD/C-PCM, Gaussian charge scheme 
  Tiago L. C. Gouveia    : GS-ROHF, GS-ROCIS                             
  Yang Guo               : DLPNO-NEVPT2, F12-NEVPT2, CIM, IAO-localization        
  Andreas Hansen         : Spin unrestricted coupled pair/coupled cluster methods 
  Ingolf Harden          : AUTO-CI MPn and infrastructure                
  Benjamin Helmich-Paris : MC-RPA, TRAH-(SCF,CASSCF), AVAS, COSX integrals, SCF dyn. polar., MC-PDFT, srDFT 
  Lee Huntington         : MR-EOM, pCC                                   
  Robert Izsak           : Overlap fitted RIJCOSX, COSX-SCS-MP3, EOM     
  Riya Kayal             : Wick's Theorem for AUTO-CI, AUTO-CI UHF-CCSDT 
  Emily Kempfer          : AUTO-CI RHF CISDT and CCSDT, approximate NEVPT4
  Christian Kollmar      : KDIIS, OOCD, Brueckner-CCSD(T), CCSD density, CASPT2, CASPT2-K, improved NEVPT2 
  Axel Koslowski         : Symmetry handling                             
  Simone Kossmann        : meta-GGA functionals, TD-DFT gradient, OOMP2, (MP2 Hessian; deprecated post 5.0) 
  Lucas Lang             : DCDCAS, Hyperfine gauge corrections, ICE-SOC+SSC
  Marvin Lechner         : AUTO-CI (C++ implementation), FIC-MRCC        
  Spencer Leger          : CASSCF response                               
  Dagmar Lenk            : GEPOL surface, SMD, ORCA-2-JSON               
  Dimitrios Liakos       : Extrapolation schemes; Compound Job, Property file
  Dimitrios Manganas     : Further ROCIS development; embedding schemes. LFT, Crystal Embedding 
  Dimitrios Pantazis     : SARC Basis sets                               
  Anastasios Papadopoulos: AUTO-CI, single reference methods and gradients 
  Taras Petrenko         : pre 6.0 DFT Hessian and TD-DFT gradient,  ECA, NRVS 
  Petra Pikulova         : Analytic Raman intensities                    
  Peter Pinski           : DLPNO-MP2, DLPNO-MP2 Gradient                 
  Shashank Vittal Rao    : ES-AILFT, MagRelax                            
  Christoph Reimann      : Effective Core Potentials                     
  Marius Retegan         : Local ZFS, SOC                                
  Christoph Riplinger    : Optimizer, TS searches, QM/MM, DLPNO-CCSD(T), (RO)-DLPNO pert. Triples 
  Michael Roemelt        : Original ROCIS implementation, recursive CI coupling coefficients
  Masaaki Saitow         : Open-shell DLPNO-CCSD energy and density      
  Barbara Sandhoefer     : DKH picture change effects                    
  Yorick L. A. Schmerwitz: GMF and freeze-and-release deltaSCF, NEB S-IDPP initial path                    
  Kantharuban Sivalingam : CASSCF convergence/infrastructure, NEVPT2, NEVPT3, NEVPT4(SD), FIC-MRCI and CEPA variants
  Bernardo de Souza      : ESD, SOC TD-DFT                               
  Georgi L. Stoychev     : AutoAux, RI-MP2 NMR, DLPNO-MP2 response, X2C  
  Van Anh Tran           : RI-MP2 g-tensors                              
  Willem Van den Heuvel  : Paramagnetic NMR                              
  Zikuan Wang            : NOTCH, Electric field optimization            
  Frank Wennmohs         : Technical directorship and infrastructure     
  Hang Xu                : AUTO-CI-Response properties                   
                                                                         
[FACCTs GmbH]                                                            
  Markus Bursch, Nicolas Foglia, Miquel Garcia-Rates, Ingolf Harden, Hagen Neugebauer, Anastasios Papadopoulos, 
  Christoph Riplinger, Bernardo de Souza, Georgi L. Stoychev                                                    
                                                                 
  APM, various basis sets, CI-OPT, improved COSX, DLPNO-Multilevel,           
  DOCKER, DRACO, updates on ESD, Fragmentator, GOAT, IRC, LR-CPCM, L-BFGS, MBIS, meta-GGA TD-DFT gradient, ML-optimized integration grids, 
  MM, NACMEs, nearIR, NEB, NEB-TS, NL-DFT gradient (VV10), 2- and 3-layer-ONIOM, interface openCOSMO-RS, QMMM,   
  Crystal-QMMM, RESP, rigid body optimization, SF, symmetry and pop. for TD-DFT, various functionals, SOLVATOR                                   
                                                                         
[Other institutions]                                                     
  V. Asgeirsson          : NEB                                           
  Christoph Bannwarth    : sTDA-DFT, sTD-DFT, PBEh-3c, B97-3c, D3        
  Giovanni Bistoni       : ETS/NOCV, ADLD/ADEX, COVALED                  
  Martin Brehm           : Molecular dynamics                            
  Ronald Cardenas        : ETS/NOCV                                      
  Martina Colucci        : COVALED                                       
  Sebastian Ehlert       : rSCAN, r2SCAN, r2SCAN-3c, D4, dhf basis sets  
  Marvin Friede          : D4 for Fr, Ra, Ac-Lr                          
  Lars Goerigk           : TD-DFT with DH, B97 family of functionals     
  Stefan Grimme          : VdW corrections, initial TS optimization, DFT functionals, gCP, sTDA/sTD-DF 
  Waldemar Hujo          : DFT-NL                                        
  H. Jonsson             : NEB                                           
  Holger Kruse           : gCP                                           
  Marcel Mueller         : wB97X-3c, vDZP basis set                      
  Hagen Neugebauer       : wr2SCAN, Native XTB                           
  Gianluca Regni         : ADLD/ADEX                                     
  Tobias Risthaus        : pre 6.0 range-separated hybrid DFT and stability analysis
  Lukas Wittmann         : regularized MP2, r2SCAN double-hybrids, wr2SCAN        
                                                                         
We gratefully acknowledge several colleagues who have allowed us to      
interface, adapt or use parts of their codes:                            
  Ed Valeev, F. Pavosevic, A. Kumar             : LibInt (2-el integral package), F12 methods 
  Garnet Chan, S. Sharma, J. Yang, R. Olivares  : DMRG                   
  Ulf Ekstrom                                   : XCFun DFT Library      
  Mihaly Kallay                                 : mrcc  (arbitrary order and MRCC methods)
  Frank Weinhold                                : gennbo (NPA and NBO analysis)           
  Simon Mueller                                 : openCOSMO-RS                            
  Christopher J. Cramer and Donald G. Truhlar   : smd solvation model                     
  S Lehtola, MJT Oliveira, MAL Marques          : LibXC Library                           
  Liviu Ungur et al                             : ANISO software                          


 Your calculation uses the libint2 library for the computation of 2-el integrals
 For citations please refer to: http://libint.valeyev.net

 Your ORCA version has been built with support for libXC version: 7.0.0
 For citations please refer to: https://libxc.gitlab.io

 This ORCA versions uses:
   CBLAS   interface :  Fast vector & matrix operations
   LAPACKE interface :  Fast linear algebra routines
   SCALAPACK package :  Parallel linear algebra routines
   Shared memory     :  Shared parallel matrices
   BLAS/LAPACK       :  OpenBLAS 0.3.29  USE64BITINT DYNAMIC_ARCH NO_AFFINITY Zen SINGLE_THREADED
        Core in use  :  Zen
   Copyright (c) 2011-2014, The OpenBLAS Project


  ***********************************
  * Starting time: Thu Apr 23 15:14:00 2026
  * Host name:     vmi3233575
  * Process ID:    1298159
  * Working dir.:  /root/b12_scan/jobs/hex_antiprism_nn2.00_perturb2
  ***********************************

NOTE: MaxCore=2500 MB was set to SCF,MP2,MDCI,CIPSI,MRCI,RASCI and CIS
      => If you want to overwrite this, your respective input block should be placed after the MaxCore statement
Your calculation utilizes the atom-pairwise dispersion correction
with the Becke-Johnson damping scheme (D3BJ)


================================================================================

----- Orbital basis set information -----
Your calculation utilizes the basis: def2-SVP
   F. Weigend and R. Ahlrichs, Phys. Chem. Chem. Phys. 7, 3297 (2005).

----- AuxJ basis set information -----
Your calculation utilizes the auxiliary basis: def2/J
   H-Rn: F. Weigend, Phys. Chem. Chem. Phys. 8, 1057 (2006).
   Fr-Lr: K. Eichkorn, F. Weigend, O. Treutler, R. Ahlrichs; Theor. Chem. Acc. 97, 119 (1997).

================================================================================
                                        WARNINGS
                       Please study these warnings very carefully!
================================================================================


WARNING: Geometry Optimization
  ===> : Switching off AutoStart
         For restart on a previous wavefunction, please use MOREAD

================================================================================
                                       INPUT FILE
================================================================================
NAME = hex_antiprism_nn2.00_perturb2.inp
|  1> ! BP86 def2-SVP def2/J RI Opt TightSCF D3BJ
|  2> ! SlowConv
|  3> 
|  4> %pal nprocs 8 end
|  5> %maxcore 2500
|  6> 
|  7> %geom
|  8>   MaxIter 300
|  9> end
| 10> 
| 11> * xyz 0 1
| 12> B      2.12729413     -0.07841227      0.77761492
| 13> B      0.68324796      2.08768811      1.01119933
| 14> B     -1.09828149      1.93380299      0.88175605
| 15> B     -2.18200955      0.14663512      0.79299097
| 16> B     -1.09879165     -1.93655402      0.90781816
| 17> B      1.03458835     -1.73593870      0.74849660
| 18> B      1.83675618      0.91562696     -0.71335470
| 19> B      0.02820526      2.14852178     -0.77799886
| 20> B     -1.96934563      1.16694521     -0.53106903
| 21> B     -2.06349838     -1.30887978     -1.06529916
| 22> B      0.12621883     -2.07962878     -0.67782308
| 23> B      1.92609664     -1.01788229     -0.79696873
| 24> *
| 25> 
| 26>                          ****END OF INPUT****
================================================================================

                       *****************************
                       * Geometry Optimization Run *
                       *****************************

Geometry optimization settings:
Update method            Update   .... BFGS
Choice of coordinates    CoordSys .... (2022) Redundant Internals
Initial Hessian          InHess   .... Almloef's Model
Max. no of cycles        MaxIter  .... 300

Convergence Tolerances:
Energy Change            TolE     ....  5.0000e-06 Eh
Max. Gradient            TolMAXG  ....  3.0000e-04 Eh/bohr
RMS Gradient             TolRMSG  ....  1.0000e-04 Eh/bohr
Max. Displacement        TolMAXD  ....  4.0000e-03 bohr
RMS Displacement         TolRMSD  ....  2.0000e-03 bohr
Strict Convergence                .... False

------------------------------------------------------------------------------
                        ORCA OPTIMIZATION COORDINATE SETUP
------------------------------------------------------------------------------

The optimization will be done in redundant internal coordinates (2022)
Making redundant internal coordinates   ...  (2022 redundants) done
Evaluating the initial hessian          ...  (Almloef) done
Evaluating the coordinates              ...  done
Calculating the B-matrix                .... done
Calculating the G-matrix                .... done
The number of degrees of freedom        ....  198

    -----------------------------------------------------------------
                    Redundant Internal Coordinates


    -----------------------------------------------------------------
         Definition                    Initial Value    Approx d2E/dq
    -----------------------------------------------------------------
      1. B(B   1,B   0)                  2.6138         0.010000   
      2. B(B   2,B   1)                  1.7928         0.190838   
      3. B(B   3,B   2)                  2.0920         0.063597   
      4. B(B   4,B   3)                  2.3508         0.024575   
      5. B(B   5,B   0)                  1.9855         0.094032   
      6. B(B   6,B   0)                  1.8154         0.175689   
      7. B(B   6,B   1)                  2.3829         0.021838   
      8. B(B   7,B   1)                  1.9063         0.125787   
      9. B(B   7,B   2)                  2.0174         0.083640   
     10. B(B   7,B   6)                  2.1898         0.044402   
     11. B(B   8,B   2)                  1.8284         0.167494   
     12. B(B   8,B   3)                  1.6851         0.283557   
     13. B(B   9,B   3)                  2.3634         0.023460   
     14. B(B   9,B   8)                  2.5346         0.012511   
     15. B(B   9,B   4)                  2.2843         0.031379   
     16. B(B  10,B   9)                  2.3535         0.024330   
     17. B(B  10,B   5)                  1.7256         0.244325   
     18. B(B  10,B   4)                  2.0088         0.086313   
     19. B(B  11,B  10)                  2.0931         0.063332   
     20. B(B  11,B   6)                  1.9374         0.112219   
     21. B(B  11,B   5)                  1.9232         0.118201   
     22. B(B  11,B   0)                  1.8446         0.157817   
     23. A(B   1,B   0,B  11)          115.9834         0.191238   
     24. A(B   1,B   0,B   6)           62.0429         0.193751   
     25. A(B   6,B   0,B  11)           63.9173         0.287576   
     26. A(B   5,B   0,B   6)          110.9158         0.265615   
     27. A(B   5,B   0,B  11)           60.1498         0.261378   
     28. A(B   1,B   0,B   5)          112.8979         0.179931   
     29. A(B   0,B   1,B   7)           97.6089         0.186121   
     30. A(B   0,B   1,B   6)           42.2920         0.154343   
     31. A(B   2,B   1,B   7)           66.0164         0.281202   
     32. A(B   2,B   1,B   6)          112.7397         0.218313   
     33. A(B   6,B   1,B   7)           60.1839         0.206671   
     34. A(B   0,B   1,B   2)          118.1255         0.195730   
     35. A(B   1,B   2,B   8)          124.4164         0.294072   
     36. A(B   3,B   2,B   7)          110.1993         0.225657   
     37. A(B   1,B   2,B   3)          126.2397         0.253709   
     38. A(B   7,B   2,B   8)           71.0299         0.259145   
     39. A(B   1,B   2,B   7)           59.6952         0.264245   
     40. A(B   3,B   2,B   8)           50.3640         0.248916   
     41. A(B   2,B   3,B   4)          121.0824         0.192571   
     42. A(B   8,B   3,B   9)           75.4483         0.232751   
     43. A(B   2,B   3,B   9)          122.2426         0.191488   
     44. A(B   4,B   3,B   9)           57.9647         0.171643   
     45. A(B   2,B   3,B   8)           56.6793         0.269153   
     46. A(B   4,B   3,B   8)          121.1183         0.234270   
     47. A(B   3,B   4,B   9)           61.2950         0.177267   
     48. A(B   9,B   4,B  10)           66.1271         0.206297   
     49. A(B   3,B   4,B  10)          107.7915         0.199984   
     50. A(B   0,B   5,B  10)          117.9110         0.279303   
     51. A(B  10,B   5,B  11)           69.7674         0.289415   
     52. A(B   0,B   5,B  11)           56.2889         0.250462   
     53. A(B   7,B   6,B  11)          126.7779         0.223650   
     54. A(B   0,B   6,B   7)          117.6925         0.238029   
     55. A(B   1,B   6,B   7)           49.0529         0.181963   
     56. A(B   0,B   6,B  11)           58.7741         0.272827   
     57. A(B   1,B   6,B  11)          122.9857         0.203670   
     58. A(B   0,B   6,B   1)           75.6651         0.215915   
     59. A(B   2,B   7,B   6)          112.1459         0.214984   
     60. A(B   1,B   7,B   2)           54.2884         0.248467   
     61. A(B   1,B   7,B   6)           70.7632         0.227174   
     62. A(B   2,B   8,B   9)          126.1767         0.199680   
     63. A(B   3,B   8,B   9)           64.4981         0.213686   
     64. A(B   2,B   8,B   3)           72.9567         0.313301   
     65. A(B   3,B   9,B   8)           40.0536         0.159933   
     66. A(B   8,B   9,B  10)          104.5151         0.160520   
     67. A(B   4,B   9,B   8)           94.0518         0.164760   
     68. A(B   3,B   9,B   4)           60.7403         0.176344   
     69. A(B   4,B   9,B  10)           51.3079         0.177067   
     70. A(B   3,B   9,B  10)           96.8279         0.171456   
     71. A(B   4,B  10,B   5)           69.7806         0.275649   
     72. A(B   9,B  10,B  11)          128.6505         0.192239   
     73. A(B   5,B  10,B   9)          124.0995         0.229137   
     74. A(B   4,B  10,B   9)           62.5650         0.199732   
     75. A(B   5,B  10,B  11)           59.5591         0.263018   
     76. A(B   4,B  10,B  11)          122.2212         0.226503   
     77. A(B   6,B  11,B  10)          117.6544         0.234920   
     78. A(B   5,B  11,B  10)           50.6735         0.236645   
     79. A(B   0,B  11,B  10)          107.6717         0.246627   
     80. A(B   5,B  11,B   6)          108.4547         0.257055   
     81. A(B   0,B  11,B   6)           57.3086         0.268417   
     82. A(B   0,B  11,B   5)           63.5613         0.270538   
     83. D(B   7,B   1,B   0,B  11)     -8.8355         0.010000   
     84. D(B   7,B   1,B   0,B   5)    -75.5563         0.010000   
     85. D(B   2,B   1,B   0,B   6)     93.6554         0.010000   
     86. D(B   2,B   1,B   0,B  11)     57.9865         0.010000   
     87. D(B   2,B   1,B   0,B   5)     -8.7343         0.010000   
     88. D(B   7,B   1,B   0,B   6)     26.8335         0.010000   
     89. D(B   8,B   2,B   1,B   7)     31.0343         0.010000   
     90. D(B   3,B   2,B   1,B   7)     93.8689         0.010000   
     91. D(B   3,B   2,B   1,B   6)     54.8131         0.010000   
     92. D(B   7,B   2,B   1,B   6)    -39.0558         0.010000   
     93. D(B   3,B   2,B   1,B   0)      8.0825         0.010000   
     94. D(B   7,B   2,B   1,B   0)    -85.7864         0.010000   
     95. D(B   4,B   3,B   2,B   1)      1.3911         0.010000   
     96. D(B   8,B   3,B   2,B   7)    -41.0157         0.010000   
     97. D(B   4,B   3,B   2,B   7)     68.0028         0.010000   
     98. D(B   4,B   3,B   2,B   8)    109.0184         0.010000   
     99. D(B   8,B   3,B   2,B   1)   -107.6273         0.010000   
    100. D(B   9,B   3,B   2,B   1)    -67.9963         0.010000   
    101. D(B   9,B   4,B   3,B   2)   -110.9556         0.010000   
    102. D(B  10,B   4,B   3,B   9)     48.6761         0.010000   
    103. D(B  10,B   4,B   3,B   8)      5.0568         0.010000   
    104. D(B   9,B   4,B   3,B   8)    -43.6193         0.010000   
    105. D(B  10,B   4,B   3,B   2)    -62.2796         0.010000   
    106. D(B  10,B   5,B   0,B   6)      5.8356         0.010000   
    107. D(B  11,B   5,B   0,B   1)    107.8152         0.010000   
    108. D(B  11,B   5,B   0,B   6)     40.3590         0.010000   
    109. D(B  10,B   5,B   0,B   1)     73.2918         0.010000   
    110. D(B  10,B   5,B   0,B  11)    -34.5234         0.010000   
    111. D(B  11,B   6,B   0,B   1)   -144.2962         0.010000   
    112. D(B   7,B   6,B   0,B   5)     79.4914         0.010000   
    113. D(B  11,B   6,B   0,B   5)    -38.7076         0.010000   
    114. D(B   7,B   6,B   1,B   2)     41.5680         0.010000   
    115. D(B   0,B   6,B   1,B   2)   -107.3885         0.010000   
    116. D(B   0,B   6,B   1,B   7)   -148.9565         0.010000   
    117. D(B  11,B   6,B   1,B   7)   -112.4473         0.010000   
    118. D(B   1,B   6,B   0,B   5)    105.5887         0.010000   
    119. D(B  11,B   6,B   1,B   2)    -70.8793         0.010000   
    120. D(B   7,B   6,B   0,B   1)    -26.0972         0.010000   
    121. D(B   7,B   6,B   0,B  11)    118.1990         0.010000   
    122. D(B  11,B   6,B   1,B   0)     36.5092         0.010000   
    123. D(B   2,B   7,B   6,B  11)     68.6027         0.010000   
    124. D(B   2,B   7,B   6,B   1)    -35.9541         0.010000   
    125. D(B   2,B   7,B   6,B   0)     -1.6027         0.010000   
    126. D(B   1,B   7,B   6,B  11)    104.5568         0.010000   
    127. D(B   1,B   7,B   6,B   0)     34.3514         0.010000   
    128. D(B   6,B   7,B   2,B   8)   -110.2162         0.010000   
    129. D(B   6,B   7,B   2,B   3)    -77.9113         0.010000   
    130. D(B   1,B   7,B   2,B   8)   -153.2736         0.010000   
    131. D(B   6,B   7,B   1,B   0)    -20.4931         0.010000   
    132. D(B   6,B   7,B   1,B   2)   -137.9514         0.010000   
    133. D(B   1,B   7,B   2,B   3)   -120.9688         0.010000   
    134. D(B   2,B   7,B   1,B   0)    117.4584         0.010000   
    135. D(B   2,B   7,B   1,B   6)    137.9514         0.010000   
    136. D(B   6,B   7,B   2,B   1)     43.0575         0.010000   
    137. D(B   9,B   8,B   3,B   2)    146.1264         0.010000   
    138. D(B   2,B   8,B   3,B   9)   -146.1264         0.010000   
    139. D(B   2,B   8,B   3,B   4)   -108.9556         0.010000   
    140. D(B   9,B   8,B   2,B   7)    100.8109         0.010000   
    141. D(B   9,B   8,B   2,B   3)    -38.5513         0.010000   
    142. D(B   3,B   8,B   2,B   7)    139.3622         0.010000   
    143. D(B   9,B   8,B   2,B   1)     72.7334         0.010000   
    144. D(B   9,B   8,B   3,B   4)     37.1708         0.010000   
    145. D(B   3,B   8,B   2,B   1)    111.2847         0.010000   
    146. D(B   3,B   9,B   8,B   2)     41.3124         0.010000   
    147. D(B  10,B   9,B   8,B   3)    -83.2743         0.010000   
    148. D(B  10,B   9,B   8,B   2)    -41.9619         0.010000   
    149. D(B   4,B   9,B   8,B   2)      9.0599         0.010000   
    150. D(B   8,B   9,B   4,B   3)     23.1805         0.010000   
    151. D(B   8,B   9,B   4,B  10)   -105.3779         0.010000   
    152. D(B   3,B   9,B   4,B  10)   -128.5584         0.010000   
    153. D(B  10,B   9,B   4,B   3)    128.5584         0.010000   
    154. D(B   8,B   9,B   3,B   2)    -33.4116         0.010000   
    155. D(B  10,B   9,B   3,B   4)    -37.9303         0.010000   
    156. D(B   4,B   9,B   8,B   3)    -32.2525         0.010000   
    157. D(B  10,B   9,B   3,B   8)    104.4681         0.010000   
    158. D(B  10,B   9,B   3,B   2)     71.0565         0.010000   
    159. D(B   4,B   9,B   3,B   8)    142.3984         0.010000   
    160. D(B   4,B   9,B   3,B   2)    108.9869         0.010000   
    161. D(B  11,B  10,B   9,B   4)   -110.7368         0.010000   
    162. D(B   5,B  10,B   9,B   8)     48.7219         0.010000   
    163. D(B   5,B  10,B   9,B   3)      8.6581         0.010000   
    164. D(B   4,B  10,B   9,B   8)     83.4630         0.010000   
    165. D(B   4,B  10,B   9,B   3)     43.3992         0.010000   
    166. D(B   9,B  10,B   5,B  11)   -118.4884         0.010000   
    167. D(B   9,B  10,B   5,B   0)    -88.3264         0.010000   
    168. D(B  11,B  10,B   5,B   0)     30.1619         0.010000   
    169. D(B   4,B  10,B   5,B  11)   -151.1035         0.010000   
    170. D(B   4,B  10,B   5,B   0)   -120.9415         0.010000   
    171. D(B   9,B  10,B   4,B   3)    -46.0811         0.010000   
    172. D(B   5,B  10,B   9,B   4)    -34.7411         0.010000   
    173. D(B  11,B  10,B   4,B   9)    120.3072         0.010000   
    174. D(B  11,B  10,B   4,B   3)     74.2261         0.010000   
    175. D(B   5,B  10,B   4,B   9)    149.8094         0.010000   
    176. D(B   5,B  10,B   4,B   3)    103.7284         0.010000   
    177. D(B   6,B  11,B  10,B   4)    -59.4631         0.010000   
    178. D(B   5,B  11,B  10,B   9)    111.2646         0.010000   
    179. D(B   5,B  11,B  10,B   4)     32.4115         0.010000   
    180. D(B   0,B  11,B  10,B   9)     81.1589         0.010000   
    181. D(B   0,B  11,B  10,B   5)    -30.1057         0.010000   
    182. D(B  10,B  11,B   6,B   0)     94.0674         0.010000   
    183. D(B   5,B  11,B   6,B   1)     -2.9076         0.010000   
    184. D(B   5,B  11,B   6,B   7)    -63.5479         0.010000   
    185. D(B   5,B  11,B   6,B   0)     39.4753         0.010000   
    186. D(B   0,B  11,B   6,B   1)    -42.3829         0.010000   
    187. D(B   0,B  11,B   6,B   7)   -103.0232         0.010000   
    188. D(B  10,B  11,B   5,B   0)   -147.7407         0.010000   
    189. D(B   6,B  11,B   5,B  10)    111.0473         0.010000   
    190. D(B   6,B  11,B   5,B   0)    -36.6935         0.010000   
    191. D(B   0,B  11,B   5,B  10)    147.7407         0.010000   
    192. D(B   0,B  11,B  10,B   4)      2.3058         0.010000   
    193. D(B  10,B  11,B   0,B   6)   -111.9838         0.010000   
    194. D(B  10,B  11,B   0,B   5)     25.6791         0.010000   
    195. D(B   6,B  11,B   0,B   1)     34.9913         0.010000   
    196. D(B   6,B  11,B   0,B   5)    137.6629         0.010000   
    197. D(B   5,B  11,B   0,B   1)   -102.6716         0.010000   
    198. D(B   5,B  11,B   0,B   6)   -137.6629         0.010000   
    -----------------------------------------------------------------

Number of atoms                         .... 12
Number of degrees of freedom            .... 198


         *************************************************************
         *                GEOMETRY OPTIMIZATION CYCLE   1            *
         *************************************************************
---------------------------------
CARTESIAN COORDINATES (ANGSTROEM)
---------------------------------
  B      2.127294   -0.078412    0.777615
  B      0.683248    2.087688    1.011199
  B     -1.098281    1.933803    0.881756
  B     -2.182010    0.146635    0.792991
  B     -1.098792   -1.936554    0.907818
  B      1.034588   -1.735939    0.748497
  B      1.836756    0.915627   -0.713355
  B      0.028205    2.148522   -0.777999
  B     -1.969346    1.166945   -0.531069
  B     -2.063498   -1.308880   -1.065299
  B      0.126219   -2.079629   -0.677823
  B      1.926097   -1.017882   -0.796969

----------------------------
CARTESIAN COORDINATES (A.U.)
----------------------------
  NO LB      ZA    FRAG     MASS         X           Y           Z
   0 B     5.0000    0    10.810    4.020003   -0.148178    1.469479
   1 B     5.0000    0    10.810    1.291152    3.945159    1.910890
   2 B     5.0000    0    10.810   -2.075451    3.654358    1.666277
   3 B     5.0000    0    10.810   -4.123400    0.277100    1.498536
   4 B     5.0000    0    10.810   -2.076415   -3.659557    1.715528
   5 B     5.0000    0    10.810    1.955089   -3.280449    1.414454
   6 B     5.0000    0    10.810    3.470966    1.730284   -1.348045
   7 B     5.0000    0    10.810    0.053300    4.060118   -1.470205
   8 B     5.0000    0    10.810   -3.721524    2.205207   -1.003575
   9 B     5.0000    0    10.810   -3.899447   -2.473424   -2.013124
  10 B     5.0000    0    10.810    0.238519   -3.929929   -1.280900
  11 B     5.0000    0    10.810    3.639795   -1.923519   -1.506053

--------------------------------
INTERNAL COORDINATES (ANGSTROEM)
--------------------------------
 B      0   0   0     0.000000000000     0.00000000     0.00000000
 B      1   0   0     2.613775406175     0.00000000     0.00000000
 B      2   1   0     1.792842261358   118.12552828     0.00000000
 B      3   2   1     2.091964326421   126.23974317     8.08254281
 B      4   3   2     2.350792057043   121.08243160     1.39112537
 B      1   2   3     1.985509421875   112.89790879   351.26569085
 B      1   2   3     1.815355805051    62.04292165    93.65543633
 B      2   1   3     1.906308431846    97.60888678   293.17803338
 B      4   3   2     1.685050001105    56.67930345   252.37267922
 B      5   4   3     2.284256111943    61.29501493   249.04436104
 B      6   1   2     1.725585664495   117.91102384    73.29177465
 B      1   2   3     1.844559031126   115.98338745    57.98650311

---------------------------
INTERNAL COORDINATES (A.U.)
---------------------------
 B      0   0   0     0.000000000000     0.00000000     0.00000000
 B      1   0   0     4.939319693249     0.00000000     0.00000000
 B      2   1   0     3.387980875287   118.12552828     0.00000000
 B      3   2   1     3.953239658869   126.23974317     8.08254281
 B      4   3   2     4.442353185609   121.08243160     1.39112537
 B      1   2   3     3.752069043664   112.89790879   351.26569085
 B      1   2   3     3.430525307170    62.04292165    93.65543633
 B      2   1   3     3.602400862974    97.60888678   293.17803338
 B      4   3   2     3.184283024053    56.67930345   252.37267922
 B      5   4   3     4.316618471309    61.29501493   249.04436104
 B      6   1   2     3.260884326516   117.91102384    73.29177465
 B      1   2   3     3.485711406679   115.98338745    57.98650311

---------------------
BASIS SET INFORMATION
---------------------
There are 1 groups of distinct atoms

 Group   1 Type B   : 7s4p1d contracted to 3s2p1d pattern {511/31/1}

Atom   0B    basis set group =>   1
Atom   1B    basis set group =>   1
Atom   2B    basis set group =>   1
Atom   3B    basis set group =>   1
Atom   4B    basis set group =>   1
Atom   5B    basis set group =>   1
Atom   6B    basis set group =>   1
Atom   7B    basis set group =>   1
Atom   8B    basis set group =>   1
Atom   9B    basis set group =>   1
Atom  10B    basis set group =>   1
Atom  11B    basis set group =>   1
---------------------------------
AUXILIARY/J BASIS SET INFORMATION
---------------------------------
There are 1 groups of distinct atoms

 Group   1 Type B   : 12s5p4d2f1g contracted to 6s4p3d1f1g pattern {711111/2111/211/2/1}

Atom   0B    basis set group =>   1
Atom   1B    basis set group =>   1
Atom   2B    basis set group =>   1
Atom   3B    basis set group =>   1
Atom   4B    basis set group =>   1
Atom   5B    basis set group =>   1
Atom   6B    basis set group =>   1
Atom   7B    basis set group =>   1
Atom   8B    basis set group =>   1
Atom   9B    basis set group =>   1
Atom  10B    basis set group =>   1
Atom  11B    basis set group =>   1


           ************************************************************
           *        Program running with 8 parallel MPI-processes     *
           *              working on a common directory               *
           ************************************************************
------------------------------------------------------------------------------
                             ORCA STARTUP CALCULATIONS
                           -- RI-GTO INTEGRALS CHOSEN --
------------------------------------------------------------------------------
------------------------------------------------------------------------------
                   ___                                                        
                  /   \      - P O W E R E D   B Y -                         
                 /     \                                                     
                 |  |  |   _    _      __       _____    __    __             
                 |  |  |  | |  | |    /  \     |  _  \  |  |  /  |          
                  \  \/   | |  | |   /    \    | | | |  |  | /  /          
                 / \  \   | |__| |  /  /\  \   | |_| |  |  |/  /          
                |  |  |   |  __  | /  /__\  \  |    /   |      \           
                |  |  |   | |  | | |   __   |  |    \   |  |\   \          
                \     /   | |  | | |  |  |  |  | |\  \  |  | \   \       
                 \___/    |_|  |_| |__|  |__|  |_| \__\ |__|  \__/        
                                                                              
                      - O R C A' S   B I G   F R I E N D -                    
                                      &                                       
                       - I N T E G R A L  F E E D E R -                       
                                                                              
 v1 FN, 2020, v2 2021, v3 2022-2024                                           
------------------------------------------------------------------------------


----------------------
SHARK INTEGRAL PACKAGE
----------------------

Number of atoms                             ...     12
Number of basis functions                   ...    168
Number of shells                            ...     72
Maximum angular momentum                    ...      2
Integral batch strategy                     ... SHARK/LIBINT Hybrid
RI-J (if used) integral strategy            ... SPLIT-RIJ (Revised 2003 algorithm where possible)
Printlevel                                  ...      1
Contraction scheme used                     ... SEGMENTED contraction
Prescreening option                         ... SCHWARTZ
   Thresh                                   ... 2.500e-11
   Tcut                                     ... 2.500e-12
   Tpresel                                  ... 2.500e-12 
Coulomb Range Separation                    ... NOT USED
Exchange Range Separation                   ... NOT USED
Multipole approximations                    ... NOT USED
Finite Nucleus Model                        ... NOT USED
CABS basis                                  ... NOT available
Auxiliary Coulomb fitting basis             ... AVAILABLE
   # of basis functions in Aux-J            ...    588
   # of shells in Aux-J                     ...    180
   Maximum angular momentum in Aux-J        ...      4
Auxiliary J/K fitting basis                 ... NOT available
Auxiliary Correlation fitting basis         ... NOT available
Auxiliary 'external' fitting basis          ... NOT available

Checking pre-screening integrals            ... done (  0.0 sec) Dimension = 72
   => SHARK Basis and OBASIS are compatible. Storing Pre-screening
Shell pair information
Shell pair cut-off parameter TPreSel        ...   2.5e-12
Total number of shell pairs                 ...      2628
Shell pairs after pre-screening             ...      2564
Total number of primitive shell pairs       ...     10596
Primitive shell pairs kept                  ...      7568
          la=0 lb=0:    622 shell pairs
          la=1 lb=0:    864 shell pairs
          la=1 lb=1:    300 shell pairs
          la=2 lb=0:    412 shell pairs
          la=2 lb=1:    288 shell pairs
          la=2 lb=2:     78 shell pairs

Checking whether 4 symmetric matrices of dimension 168 fit in memory
:Max Core in MB      =   2500.00
 MB in use           =      6.83
 MB left             =   2493.17
 MB needed           =      0.43
 Data fit in memory  = YES
Calculating RI/J V-Matrix + Cholesky decomp.... done (  0.4 sec)
Calculating Nuclear repulsion               ... done (  0.0 sec) ENN=    295.597400227256 Eh

Diagonalization of the overlap matrix:
Smallest eigenvalue                        ... 7.409e-04
Time for diagonalization                   ...    0.004 sec
Threshold for overlap eigenvalues          ... 1.000e-07
Number of eigenvalues below threshold      ... 0
Time for construction of square roots      ...    0.106 sec
Total time needed                          ...    0.153 sec

-------------------
DFT GRID GENERATION
-------------------

General Integration Accuracy     IntAcc      ... 4.388
Radial Grid Type                 RadialGrid  ... OptM3 with GC (2021)
Angular Grid (max. ang.)         AngularGrid ... 4 (Lebedev-302)
Angular grid pruning method      GridPruning ... 4 (adaptive)
Weight generation scheme         WeightScheme... mBecke (2022)
Basis function cutoff            BFCut       ... 1.0000e-11
Integration weight cutoff        WCut        ... 1.0000e-14
Partially contracted basis set               ... off
Rotationally invariant grid construction     ... off
Angular grids for H and He will be reduced by one unit

Total number of grid points                  ...    71838
Total number of batches                      ...     1130
Average number of points per batch           ...       63
Average number of grid points per atom       ...     5986
Grids setup in   0.8 sec
Initializing property integral containers    ... done (  0.0 sec)

SHARK setup successfully completed in   2.2 seconds

Maximum memory used throughout the entire STARTUP-calculation: 19.9 MB


           ************************************************************
           *        Program running with 8 parallel MPI-processes     *
           *              working on a common directory               *
           ************************************************************
-------------------------------------------------------------------------------
                                 ORCA GUESS
                   Start orbitals & Density for SCF / CASSCF
-------------------------------------------------------------------------------

------------
SCF SETTINGS
------------
Hamiltonian:
 Density Functional     Method          .... DFT(GTOs)
 Exchange Functional    Exchange        .... B88
   X-Alpha parameter    XAlpha          ....  0.666667
   Becke's b parameter  XBeta           ....  0.004200
 Correlation Functional Correlation     .... P86
 LDA part of GGA corr.  LDAOpt          .... PW91-LDA
 Gradients option       PostSCFGGA      .... off
   NL short-range parameter             ....  4.400000
 RI-approximation to the Coulomb term is turned on
   Number of AuxJ basis functions       .... 588


General Settings:
 Integral files         IntName         .... hex_antiprism_nn2.00_perturb2
 Hartree-Fock type      HFTyp           .... RHF
 Total Charge           Charge          ....    0
 Multiplicity           Mult            ....    1
 Number of Electrons    NEL             ....   60
 Basis Dimension        Dim             ....  168
 Nuclear Repulsion      ENuc            ....    295.5974002273 Eh

Convergence Acceleration:
 AO-DIIS                CNVDIIS         .... on
   Start iteration      DIISMaxIt       ....     0
   Startup error        DIISStart       ....  0.200000
   # of expansion vecs  DIISMaxEq       ....     5
   Bias factor          DIISBfac        ....   1.050
   Max. coefficient     DIISMaxC        ....  10.000
 MO-DIIS                CNVKDIIS        .... off
 Trust-Rad. Augm. Hess. CNVTRAH         .... auto
   Auto Start mean grad. ratio tolernc. ....  1.125000
   Auto Start start iteration           ....    50
   Auto Start num. interpolation iter.  ....    10
   Max. Number of Micro iterations      ....    24
   Max. Number of Macro iterations      .... Maxiter - #DIIS iter
   Number of Davidson start vectors     ....     2
   Converg. threshold    (grad. norm)   ....   1.000e-05
   Grad. Scal. Fac. for Micro threshold ....   0.100
   Minimum threshold for Micro iter.    ....   1.000e-02
   NR start threshold (gradient norm)   ....   1.000e-04
   Initial trust radius                 ....   0.400
   Minimum AH scaling param. (alpha)    ....   1.000
   Maximum AH scaling param. (alpha)    .... 1000.000
   Quad. conv. algorithm                .... NR
   White noise on init. David. guess    .... on
   Maximum white noise                  ....   0.010
   Pseudo random numbers                .... off
   Inactive MOs                         .... canonical
   Orbital update algorithm             .... Taylor
   Preconditioner                       .... Diag
   Full preconditioner red. dimension   ....   250
 SOSCF                 CNVSOSCF           .... on
   Start iteration     SOSCFMaxIt         ....   150
   Startup grad/error  SOSCFStart         ....  0.001000
   Hessian update      SOSCFHessUp        .... L-BFGS
   Autom. constraints  SOSCFAutoConstrain .... off
 Level Shifting         CNVShift        .... on
   Level shift para.    LevelShift      ....    0.2500
   Turn off err/grad.   ShiftErr        ....    0.0000
 Zerner damping         CNVZerner       .... off
 Static damping         CNVDamp         .... on
   Fraction old density DampFac         ....    0.8500
   Max. Damping (<1)    DampMax         ....    0.9800
   Min. Damping (>=0)   DampMin         ....    0.0000
   Turn off err/grad.   DampErr         ....    0.0300

SCF Procedure:
 Maximum # iterations   MaxIter         ....   125
 SCF integral mode      SCFMode         .... Direct
   Integral package                     .... SHARK and LIBINT hybrid scheme
 Reset frequency        DirectResetFreq ....    20
 Integral Threshold     Thresh          ....  2.500e-11 Eh
 Primitive CutOff       TCut            ....  2.500e-12 Eh

Convergence Tolerance:
 Convergence Check Mode ConvCheckMode   .... Total+1el-Energy
 Convergence forced     ConvForced      .... 0
 Energy Change          TolE            ....  1.000e-08 Eh
 1-El. energy change                    ....  1.000e-05 Eh
 Orbital Gradient       TolG            ....  1.000e-05
 Orbital Rotation angle TolX            ....  1.000e-05
 DIIS Error             TolErr          ....  5.000e-07

------------------------------
INITIAL GUESS: MODEL POTENTIAL
------------------------------
Loading Hartree-Fock densities                     ... done
Calculating cut-offs                               ... done
Initializing the effective Hamiltonian             ... done
Setting up the integral package (SHARK)            ... done
Starting the Coulomb interaction                   ... done (   0.0 sec)
Making the grid                                    ... done (   0.2 sec)
Mapping shells                                     ... done
Starting the XC term evaluation                    ... done (   0.1 sec)
  promolecular density results
     # of electrons  =     60.000993972
     EX              =    -45.101815622
     EC              =     -1.897581200
     EX+EC           =    -46.999396822
Transforming the Hamiltonian                       ... done (   0.0 sec)
Diagonalizing the Hamiltonian                      ... done (   0.0 sec)
Back transforming the eigenvectors                 ... done (   0.0 sec)
Now organizing SCF variables                       ... done
                      ------------------
                      INITIAL GUESS DONE (   0.3 sec)
                      ------------------
             **** ENERGY FILE WAS UPDATED (hex_antiprism_nn2.00_perturb2.en.tmp) ****
Finished Guess after   1.0 sec
Maximum memory used throughout the entire GUESS-calculation: 9.6 MB


           ************************************************************
           *        Program running with 8 parallel MPI-processes     *
           *              working on a common directory               *
           ************************************************************

-------------------------------------------------------------------------------------------
                                      ORCA LEAN-SCF
                              memory conserving SCF solver
-------------------------------------------------------------------------------------------

----------------------------------------D-I-I-S--------------------------------------------
Iteration    Energy (Eh)           Delta-E    RMSDP     MaxDP     DIISErr   Damp  Time(sec)
-------------------------------------------------------------------------------------------
               ***  Starting incremental Fock matrix formation  ***
    1    -296.7927265707936613     0.00e+00  5.93e-03  4.29e-02  8.60e-02  0.850   0.4
Warning: op=0 Small HOMO/LUMO gap (  -0.037) - skipping pre-diagonalization
         Will do a full diagonalization
    2    -296.8693371918840285    -7.66e-02  7.41e-03  4.23e-02  5.31e-02  0.850   0.5
                               ***Turning on AO-DIIS***
    3    -296.9102511189894358    -4.09e-02  4.15e-03  2.82e-02  3.32e-02  0.850   0.5
    4    -296.9273273665144188    -1.71e-02  2.48e-03  1.24e-02  2.18e-02  0.850   0.5
    5    -296.9401470401243159    -1.28e-02  1.13e-02  5.76e-02  1.54e-02  0.000   0.4
    6    -296.9966835491092070    -5.65e-02  3.93e-03  3.60e-02  1.53e-02  0.000   0.6
    7    -297.0037421782308229    -7.06e-03  1.67e-03  1.24e-02  5.97e-03  0.000   0.5
    8    -297.0048813600783433    -1.14e-03  8.93e-04  3.65e-03  4.08e-03  0.000   0.4
    9    -297.0054020658244553    -5.21e-04  5.58e-04  3.37e-03  1.48e-03  0.000   0.4
                              *** Initializing SOSCF ***
---------------------------------------S-O-S-C-F--------------------------------------
Iteration    Energy (Eh)           Delta-E    RMSDP     MaxDP     MaxGrad    Time(sec)
--------------------------------------------------------------------------------------
   10    -297.0055636663136056    -1.62e-04  3.60e-04  1.62e-03  9.65e-04     0.5
               *** Restarting incremental Fock matrix formation ***
   11    -297.0056400541169523    -7.64e-05  5.01e-04  1.81e-03  7.33e-04     0.4
   12    -297.0057049453371292    -6.49e-05  1.37e-03  5.16e-03  6.85e-04     0.5
   13    -297.0056924152294187     1.25e-05  5.06e-04  3.10e-03  1.61e-03     0.4
   14    -297.0057314753327091    -3.91e-05  8.08e-04  5.88e-03  9.08e-04     0.4
   15    -297.0057268676752074     4.61e-06  4.54e-04  2.31e-03  7.73e-04     0.4
   16    -297.0057727017483558    -4.58e-05  4.43e-04  2.53e-03  4.09e-04     0.5
   17    -297.0057667205906000     5.98e-06  2.51e-04  1.83e-03  4.34e-04     0.3
   18    -297.0057845316874818    -1.78e-05  2.09e-04  1.79e-03  1.29e-04     0.3
   19    -297.0057834158582182     1.12e-06  1.24e-04  9.72e-04  2.33e-04     0.4
   20    -297.0057884234342964    -5.01e-06  1.46e-04  5.53e-04  1.09e-04     0.3
   21    -297.0057891396851346    -7.16e-07  2.03e-04  8.50e-04  1.31e-04     0.5
   22    -297.0057912705692615    -2.13e-06  2.96e-04  1.93e-03  9.53e-05     0.3
   23    -297.0057926980372258    -1.43e-06  1.64e-04  6.02e-04  1.10e-04     0.3
   24    -297.0057938651012819    -1.17e-06  3.23e-04  1.21e-03  1.05e-04     0.3
   25    -297.0057951432809205    -1.28e-06  4.20e-04  1.57e-03  8.98e-05     0.3
   26    -297.0057975185748091    -2.38e-06  1.01e-03  3.74e-03  9.74e-05     0.4
   27    -297.0058027177760778    -5.20e-06  2.00e-03  7.21e-03  1.74e-04     0.3
   28    -297.0058125230694941    -9.81e-06  2.58e-03  9.09e-03  2.90e-04     0.3
   29    -297.0058273136517073    -1.48e-05  2.18e-03  7.58e-03  3.79e-04     0.3
   30    -297.0058522141034700    -2.49e-05  2.41e-03  8.18e-03  4.26e-04     0.3
               *** Restarting incremental Fock matrix formation ***
   31    -297.0058778107511444    -2.56e-05  1.70e-03  8.85e-03  4.69e-04     0.4
   32    -297.0058356678928249     4.21e-05  2.16e-03  9.42e-03  8.46e-04     0.4
   33    -297.0059032932374521    -6.76e-05  1.26e-03  5.59e-03  2.11e-04     0.4
   34    -297.0059068365716257    -3.54e-06  4.82e-04  1.79e-03  1.88e-04     0.6
   35    -297.0059121617058508    -5.33e-06  3.37e-04  1.19e-03  7.58e-05     0.5
   36    -297.0059133661710575    -1.20e-06  1.63e-04  1.01e-03  8.47e-05     0.3
   37    -297.0059142845042288    -9.18e-07  9.61e-05  6.01e-04  4.12e-05     0.4
   38    -297.0059145464612129    -2.62e-07  3.12e-05  1.32e-04  2.10e-05     0.7
   39    -297.0059146461568389    -9.97e-08  2.73e-05  9.32e-05  1.02e-05     0.5
   40    -297.0059146736471121    -2.75e-08  2.61e-05  8.80e-05  7.62e-06     0.3
   41    -297.0059146833770001    -9.73e-09  2.14e-05  7.53e-05  3.77e-06     0.4
                 **** Energy Check signals convergence ****

               *****************************************************
               *                     SUCCESS                       *
               *           SCF CONVERGED AFTER  41 CYCLES          *
               *****************************************************

             **** ENERGY FILE WAS UPDATED (hex_antiprism_nn2.00_perturb2.en.tmp) ****

----------------
TOTAL SCF ENERGY
----------------

Total Energy       :       -297.00591468833932 Eh           -8081.94182 eV

Components:
Nuclear Repulsion  :        295.59740022725600 Eh            8043.61419 eV
Electronic Energy  :       -592.60331491559532 Eh          -16125.55601 eV
One Electron Energy:       -979.12859525594729 Eh          -26643.44360 eV
Two Electron Energy:        386.52528034035197 Eh           10517.88760 eV

Virial components:
Potential Energy   :       -587.57786080787628 Eh          -15988.80645 eV
Kinetic Energy     :        290.57194611953702 Eh            7906.86463 eV
Virial Ratio       :          2.02214242859548

DFT components:
N(Alpha)           :       30.000003087566 electrons
N(Beta)            :       30.000003087566 electrons
N(Total)           :       60.000006175131 electrons
E(X)               :      -45.285244364016 Eh       
E(C)               :       -1.929909985743 Eh       
E(XC)              :      -47.215154349759 Eh       

---------------
SCF CONVERGENCE
---------------

  Last Energy change         ...    9.7299e-09  Tolerance :   1.0000e-08
  Last MAX-Density change    ...    7.5286e-05  Tolerance :   1.0000e-07
  Last RMS-Density change    ...    2.1358e-05  Tolerance :   5.0000e-09
  Last DIIS Error            ...    9.6465e-04  Tolerance :   5.0000e-07
  Last Orbital Gradient      ...    3.7695e-06  Tolerance :   1.0000e-05
  Last Orbital Rotation      ...    4.7260e-04  Tolerance :   1.0000e-05


----------------
ORBITAL ENERGIES
----------------

  NO   OCC          E(Eh)            E(eV) 
   0   2.0000      -6.655477      -181.1047 
   1   2.0000      -6.650562      -180.9710 
   2   2.0000      -6.650124      -180.9591 
   3   2.0000      -6.649248      -180.9352 
   4   2.0000      -6.640726      -180.7033 
   5   2.0000      -6.638400      -180.6401 
   6   2.0000      -6.634741      -180.5405 
   7   2.0000      -6.634130      -180.5238 
   8   2.0000      -6.632964      -180.4921 
   9   2.0000      -6.622647      -180.2114 
  10   2.0000      -6.621488      -180.1799 
  11   2.0000      -6.614909      -180.0008 
  12   2.0000      -0.597938       -16.2707 
  13   2.0000      -0.572094       -15.5675 
  14   2.0000      -0.529591       -14.4109 
  15   2.0000      -0.482016       -13.1163 
  16   2.0000      -0.447843       -12.1864 
  17   2.0000      -0.378795       -10.3075 
  18   2.0000      -0.367976       -10.0131 
  19   2.0000      -0.352064        -9.5802 
  20   2.0000      -0.348375        -9.4798 
  21   2.0000      -0.321147        -8.7389 
  22   2.0000      -0.288467        -7.8496 
  23   2.0000      -0.281413        -7.6576 
  24   2.0000      -0.263304        -7.1649 
  25   2.0000      -0.247880        -6.7452 
  26   2.0000      -0.241079        -6.5601 
  27   2.0000      -0.227626        -6.1940 
  28   2.0000      -0.218567        -5.9475 
  29   2.0000      -0.206000        -5.6056 
  30   0.0000      -0.211221        -5.7476 
  31   0.0000      -0.193085        -5.2541 
  32   0.0000      -0.175772        -4.7830 
  33   0.0000      -0.171772        -4.6742 
  34   0.0000      -0.168892        -4.5958 
  35   0.0000      -0.150009        -4.0819 
  36   0.0000      -0.130544        -3.5523 
  37   0.0000      -0.118876        -3.2348 
  38   0.0000      -0.109278        -2.9736 
  39   0.0000      -0.101654        -2.7662 
  40   0.0000      -0.085385        -2.3234 
*Only the first 10 virtual orbitals were printed.

                    ********************************
                    * MULLIKEN POPULATION ANALYSIS *
                    ********************************

-----------------------
MULLIKEN ATOMIC CHARGES
-----------------------
   0 B :    0.019872
   1 B :    0.012754
   2 B :    0.005969
   3 B :   -0.034184
   4 B :   -0.015270
   5 B :   -0.027749
   6 B :   -0.038786
   7 B :   -0.006165
   8 B :    0.018783
   9 B :    0.054561
  10 B :   -0.065280
  11 B :    0.075494
Sum of atomic charges:    0.0000000

--------------------------------
MULLIKEN REDUCED ORBITAL CHARGES
--------------------------------
  0 B s       :     3.215105  s :     3.215105
      pz      :     0.514081  p :     1.734433
      px      :     0.549147
      py      :     0.671206
      dz2     :     0.009391  d :     0.030589
      dxz     :     0.006021
      dyz     :     0.006577
      dx2y2   :     0.003734
      dxy     :     0.004868

  1 B s       :     3.338123  s :     3.338123
      pz      :     0.626708  p :     1.622883
      px      :     0.533371
      py      :     0.462804
      dz2     :     0.007512  d :     0.026240
      dxz     :     0.006532
      dyz     :     0.004031
      dx2y2   :     0.003904
      dxy     :     0.004261

  2 B s       :     3.176391  s :     3.176391
      pz      :     0.612430  p :     1.782607
      px      :     0.650766
      py      :     0.519411
      dz2     :     0.010166  d :     0.035033
      dxz     :     0.007773
      dyz     :     0.004796
      dx2y2   :     0.005791
      dxy     :     0.006507

  3 B s       :     3.315580  s :     3.315580
      pz      :     0.587375  p :     1.691203
      px      :     0.494028
      py      :     0.609800
      dz2     :     0.007939  d :     0.027401
      dxz     :     0.002755
      dyz     :     0.007336
      dx2y2   :     0.004437
      dxy     :     0.004934

  4 B s       :     3.500804  s :     3.500804
      pz      :     0.452228  p :     1.490921
      px      :     0.526178
      py      :     0.512515
      dz2     :     0.007624  d :     0.023545
      dxz     :     0.005280
      dyz     :     0.002373
      dx2y2   :     0.004453
      dxy     :     0.003817

  5 B s       :     3.175730  s :     3.175730
      pz      :     0.602358  p :     1.818139
      px      :     0.591913
      py      :     0.623868
      dz2     :     0.011206  d :     0.033880
      dxz     :     0.006279
      dyz     :     0.005690
      dx2y2   :     0.004766
      dxy     :     0.005940

  6 B s       :     3.258146  s :     3.258146
      pz      :     0.609497  p :     1.750837
      px      :     0.599142
      py      :     0.542197
      dz2     :     0.007456  d :     0.029803
      dxz     :     0.004140
      dyz     :     0.007764
      dx2y2   :     0.005067
      dxy     :     0.005375

  7 B s       :     3.307377  s :     3.307377
      pz      :     0.640973  p :     1.672819
      px      :     0.553512
      py      :     0.478333
      dz2     :     0.008727  d :     0.025970
      dxz     :     0.005499
      dyz     :     0.005045
      dx2y2   :     0.003017
      dxy     :     0.003681

  8 B s       :     3.261270  s :     3.261270
      pz      :     0.540661  p :     1.687001
      px      :     0.563035
      py      :     0.583305
      dz2     :     0.009941  d :     0.032946
      dxz     :     0.006850
      dyz     :     0.007968
      dx2y2   :     0.004445
      dxy     :     0.003741

  9 B s       :     3.836716  s :     3.836716
      pz      :     0.291609  p :     1.090111
      px      :     0.424019
      py      :     0.374483
      dz2     :     0.004688  d :     0.018612
      dxz     :     0.002853
      dyz     :     0.004139
      dx2y2   :     0.004356
      dxy     :     0.002576

 10 B s       :     3.228702  s :     3.228702
      pz      :     0.562269  p :     1.807273
      px      :     0.674901
      py      :     0.570104
      dz2     :     0.008783  d :     0.029305
      dxz     :     0.007664
      dyz     :     0.003928
      dx2y2   :     0.004626
      dxy     :     0.004303

 11 B s       :     3.245850  s :     3.245850
      pz      :     0.587010  p :     1.641877
      px      :     0.498021
      py      :     0.556846
      dz2     :     0.011512  d :     0.036779
      dxz     :     0.006109
      dyz     :     0.006976
      dx2y2   :     0.005483
      dxy     :     0.006700



                     *******************************
                     * LOEWDIN POPULATION ANALYSIS *
                     *******************************

----------------------
LOEWDIN ATOMIC CHARGES
----------------------
   0 B :   -0.011236
   1 B :    0.038393
   2 B :   -0.047019
   3 B :    0.056617
   4 B :   -0.009197
   5 B :   -0.053080
   6 B :    0.035371
   7 B :   -0.006793
   8 B :   -0.058321
   9 B :    0.067454
  10 B :    0.003481
  11 B :   -0.015669

-------------------------------
LOEWDIN REDUCED ORBITAL CHARGES
-------------------------------
  0 B s       :     2.900246  s :     2.900246
      pz      :     0.679537  p :     2.040766
      px      :     0.580807
      py      :     0.780422
      dz2     :     0.023758  d :     0.070224
      dxz     :     0.009786
      dyz     :     0.018301
      dx2y2   :     0.006393
      dxy     :     0.011985

  1 B s       :     2.997553  s :     2.997553
      pz      :     0.760012  p :     1.903957
      px      :     0.654858
      py      :     0.489087
      dz2     :     0.019677  d :     0.060097
      dxz     :     0.014308
      dyz     :     0.006122
      dx2y2   :     0.012538
      dxy     :     0.007451

  2 B s       :     2.876313  s :     2.876313
      pz      :     0.764976  p :     2.085194
      px      :     0.754305
      py      :     0.565913
      dz2     :     0.023825  d :     0.085513
      dxz     :     0.018620
      dyz     :     0.009635
      dx2y2   :     0.017823
      dxy     :     0.015611

  3 B s       :     2.945055  s :     2.945055
      pz      :     0.728668  p :     1.934255
      px      :     0.485052
      py      :     0.720535
      dz2     :     0.017467  d :     0.064073
      dxz     :     0.004330
      dyz     :     0.020735
      dx2y2   :     0.009244
      dxy     :     0.012297

  4 B s       :     3.119581  s :     3.119581
      pz      :     0.601517  p :     1.838205
      px      :     0.642194
      py      :     0.594494
      dz2     :     0.015593  d :     0.051411
      dxz     :     0.014233
      dyz     :     0.003596
      dx2y2   :     0.011327
      dxy     :     0.006662

  5 B s       :     2.864532  s :     2.864532
      pz      :     0.781631  p :     2.107861
      px      :     0.684343
      py      :     0.641888
      dz2     :     0.027177  d :     0.080687
      dxz     :     0.017480
      dyz     :     0.010059
      dx2y2   :     0.011383
      dxy     :     0.014587

  6 B s       :     2.928514  s :     2.928514
      pz      :     0.735822  p :     1.967528
      px      :     0.608709
      py      :     0.622998
      dz2     :     0.017958  d :     0.068586
      dxz     :     0.007132
      dyz     :     0.018687
      dx2y2   :     0.014272
      dxy     :     0.010537

  7 B s       :     2.965867  s :     2.965867
      pz      :     0.796655  p :     1.983104
      px      :     0.662837
      py      :     0.523612
      dz2     :     0.023243  d :     0.057822
      dxz     :     0.013038
      dyz     :     0.006982
      dx2y2   :     0.005323
      dxy     :     0.009237

  8 B s       :     2.933436  s :     2.933436
      pz      :     0.752297  p :     2.047438
      px      :     0.594788
      py      :     0.700354
      dz2     :     0.021740  d :     0.077447
      dxz     :     0.014936
      dyz     :     0.024010
      dx2y2   :     0.009420
      dxy     :     0.007343

  9 B s       :     3.497972  s :     3.497972
      pz      :     0.426791  p :     1.402283
      px      :     0.530579
      py      :     0.444913
      dz2     :     0.008581  d :     0.032291
      dxz     :     0.004791
      dyz     :     0.007196
      dx2y2   :     0.007532
      dxy     :     0.004191

 10 B s       :     2.882434  s :     2.882434
      pz      :     0.726372  p :     2.043311
      px      :     0.783403
      py      :     0.533536
      dz2     :     0.021363  d :     0.070773
      dxz     :     0.023146
      dyz     :     0.006690
      dx2y2   :     0.008815
      dxy     :     0.010759

 11 B s       :     2.917191  s :     2.917191
      pz      :     0.774039  p :     2.012720
      px      :     0.577919
      py      :     0.660762
      dz2     :     0.026783  d :     0.085759
      dxz     :     0.011770
      dyz     :     0.016056
      dx2y2   :     0.016018
      dxy     :     0.015133



                      *****************************
                      * MAYER POPULATION ANALYSIS *
                      *****************************

  NA   - Mulliken gross atomic population
  ZA   - Total nuclear charge
  QA   - Mulliken gross atomic charge
  VA   - Mayer's total valence
  BVA  - Mayer's bonded valence
  FA   - Mayer's free valence

  ATOM       NA         ZA         QA         VA         BVA        FA
  0 B      4.9801     5.0000     0.0199     3.3118     3.3118    -0.0000
  1 B      4.9872     5.0000     0.0128     3.1547     3.1547     0.0000
  2 B      4.9940     5.0000     0.0060     3.2698     3.2698     0.0000
  3 B      5.0342     5.0000    -0.0342     3.2442     3.2442     0.0000
  4 B      5.0153     5.0000    -0.0153     2.9224     2.9224    -0.0000
  5 B      5.0277     5.0000    -0.0277     3.3201     3.3201    -0.0000
  6 B      5.0388     5.0000    -0.0388     3.4175     3.4175    -0.0000
  7 B      5.0062     5.0000    -0.0062     3.2054     3.2054    -0.0000
  8 B      4.9812     5.0000     0.0188     3.1792     3.1792     0.0000
  9 B      4.9454     5.0000     0.0546     1.9501     1.9501     0.0000
 10 B      5.0653     5.0000    -0.0653     3.3045     3.3045     0.0000
 11 B      4.9245     5.0000     0.0755     3.1188     3.1188     0.0000

  Mayer bond orders larger than 0.100000
B(  0-B ,  1-B ) :   0.4613 B(  0-B ,  5-B ) :   0.8123 B(  0-B ,  6-B ) :   0.9195 
B(  0-B , 10-B ) :   0.1198 B(  0-B , 11-B ) :   0.6213 B(  1-B ,  2-B ) :   1.0322 
B(  1-B ,  6-B ) :   0.3227 B(  1-B ,  7-B ) :   0.6703 B(  1-B ,  8-B ) :   0.2549 
B(  1-B , 10-B ) :   0.1104 B(  2-B ,  3-B ) :   0.6799 B(  2-B ,  6-B ) :   0.1079 
B(  2-B ,  7-B ) :   0.5370 B(  2-B ,  8-B ) :   0.6554 B(  2-B ,  9-B ) :   0.1096 
B(  3-B ,  4-B ) :   0.6058 B(  3-B ,  7-B ) :   0.1427 B(  3-B ,  8-B ) :   1.0035 
B(  3-B ,  9-B ) :   0.3560 B(  3-B , 10-B ) :   0.1367 B(  4-B ,  5-B ) :   0.6267 
B(  4-B ,  8-B ) :   0.1050 B(  4-B ,  9-B ) :   0.3674 B(  4-B , 10-B ) :   0.6904 
B(  4-B , 11-B ) :   0.1987 B(  5-B ,  6-B ) :   0.1875 B(  5-B ,  9-B ) :   0.1639 
B(  5-B , 10-B ) :   0.8536 B(  5-B , 11-B ) :   0.5246 B(  6-B ,  7-B ) :   0.7664 
B(  6-B , 11-B ) :   0.7625 B(  7-B ,  8-B ) :   0.7639 B(  8-B ,  9-B ) :   0.2111 
B(  9-B , 10-B ) :   0.4557 B( 10-B , 11-B ) :   0.7606 

-------
TIMINGS
-------

Total SCF time: 0 days 0 hours 0 min 17 sec 

Total time                  ....      17.699 sec
Sum of individual times     ....      17.225 sec  ( 97.3%)

SCF preparation             ....       0.604 sec  (  3.4%)
Fock matrix formation       ....      13.746 sec  ( 77.7%)
  Startup                   ....       0.041 sec  (  0.3% of F)
  Split-RI-J                ....       4.454 sec  ( 32.4% of F)
  XC integration            ....       8.578 sec  ( 62.4% of F)
    XC Preparation          ....       0.000 sec  (  0.0% of XC)
    Basis function eval.    ....       1.890 sec  ( 22.0% of XC)
    Density eval.           ....       1.194 sec  ( 13.9% of XC)
    XC-Functional eval.     ....       0.246 sec  (  2.9% of XC)
    XC-Potential eval.      ....       1.485 sec  ( 17.3% of XC)
Diagonalization             ....       0.000 sec  (  0.0%)
Density matrix formation    ....       0.548 sec  (  3.1%)
Total Energy calculation    ....       0.260 sec  (  1.5%)
Population analysis         ....       0.035 sec  (  0.2%)
Orbital Transformation      ....       0.053 sec  (  0.3%)
Orbital Orthonormalization  ....       0.000 sec  (  0.0%)
DIIS solution               ....       0.487 sec  (  2.8%)
SOSCF solution              ....       1.492 sec  (  8.4%)
Finished LeanSCF after  17.7 sec

Maximum memory used throughout the entire LEANSCF-calculation: 10.1 MB


-------------------------------------------------------------------------------
                          DFT DISPERSION CORRECTION                            
                                                                               
                              DFTD3 V3.1  Rev 1                                
                          USING Becke-Johnson damping                          
-------------------------------------------------------------------------------
The BP86 functional is recognized
Active option DFTDOPT                   ...         4   

molecular C6(AA) [au] = 7324.103394 


            DFT-D V3
 parameters
 s6 scaling factor         :     1.0000 
 a1 scaling factor         :     0.3946 
 s8 scaling factor         :     3.2822 
 a2 scaling factor         :     4.8516 
 ad hoc parameters k1-k3   :    16.0000     1.3333    -4.0000 

 Edisp/kcal,au: -30.041311186007  -0.047873871588 
 E6   /kcal   :  -8.747154689 
 E8   /kcal   : -21.294156497 
 % E8         :  70.882913083 

-------------------------   ----------------
Dispersion correction           -0.047873872
-------------------------   ----------------


-------------------------   --------------------
FINAL SINGLE POINT ENERGY      -297.053788559927
-------------------------   --------------------



           ************************************************************
           *        Program running with 8 parallel MPI-processes     *
           *              working on a common directory               *
           ************************************************************
------------------------------------------------------------------------------
                         ORCA SCF GRADIENT CALCULATION
------------------------------------------------------------------------------

Nuc. rep. gradient        (SHARK) ... done (  0.0 sec)
HCore & Overlap gradient  (SHARK) ... done (  0.1 sec)
Split-RIJ-J gradient      (SHARK) ... done (  0.4 sec)
XC gradient                       ... done (  0.9 sec)
Dispersion correction             ... done (  0.0 sec)

-------------------
DISPERSION GRADIENT
-------------------

   1   B   :   -0.002720847   -0.004732149   -0.004040485
   2   B   :   -0.000252790    0.000753739   -0.001041253
   3   B   :   -0.000922198   -0.001684294   -0.001924673
   4   B   :    0.000786008    0.000926971   -0.001110649
   5   B   :    0.002051026    0.000213945   -0.003453933
   6   B   :    0.001966934    0.004303467   -0.002010444
   7   B   :    0.000696775   -0.001416404    0.001627787
   8   B   :   -0.000560245    0.000189999    0.002253015
   9   B   :    0.000316836    0.000903535    0.000824518
  10   B   :    0.000672697   -0.000442588    0.002657521
  11   B   :   -0.000465565    0.000447654    0.001931558
  12   B   :   -0.001568633    0.000536126    0.004287039

Difference to translation invariance:
           :   -0.0000000000    0.0000000000    0.0000000000

Difference to rotation invariance:
           :    0.0000000000    0.0000000000    0.0000000000

Norm of the Dispersion gradient    ...    0.0120707339
RMS gradient                       ...    0.0020117890
MAX gradient                       ...    0.0047321493

------------------
CARTESIAN GRADIENT
------------------

   1   B   :    0.042363825    0.001349836    0.048615646
   2   B   :    0.047037018    0.037136775    0.046112792
   3   B   :   -0.037031486    0.037232933    0.020462452
   4   B   :   -0.051071889   -0.004546228    0.041277321
   5   B   :   -0.042465033   -0.031012169    0.047348290
   6   B   :    0.018364723   -0.047431533    0.022913699
   7   B   :    0.045204462    0.027489653   -0.044665992
   8   B   :    0.000297659    0.055284161   -0.048914334
   9   B   :   -0.054283288   -0.012504179   -0.028402226
  10   B   :   -0.028170468   -0.001853093   -0.027218711
  11   B   :   -0.000958769   -0.042694628   -0.048772848
  12   B   :    0.060713246   -0.018451528   -0.028756089

Difference to translation invariance:
           :   -0.0000000000   -0.0000000000    0.0000000000

Difference to rotation invariance:
           :   -0.0000160319   -0.0000550741   -0.0000657003

Norm of the Cartesian gradient     ...    0.2241716289
RMS gradient                       ...    0.0373619381
MAX gradient                       ...    0.0607132462

-------
TIMINGS
-------

Total SCF gradient time     ....        1.449 sec

Densities                   ....       0.002 sec  (  0.1%)
One electron gradient       ....       0.068 sec  (  4.7%)
RI-J Coulomb gradient       ....       0.420 sec  ( 29.0%)
XC gradient                 ....       0.908 sec  ( 62.7%)

Maximum memory used throughout the entire SCFGRAD-calculation: 29.6 MB
------------------------------------------------------------------------------
                         ORCA GEOMETRY RELAXATION STEP
------------------------------------------------------------------------------

Reading the OPT-File                    .... done
Getting information on internals        .... done
Copying old internal coords+grads       .... done
Making the new internal coordinates     .... (2022 redundants) done
Validating the new internal coordinates .... (2022 redundants) done
Calculating the B-matrix                .... done
Calculating the G,G- and P matrices     .... done
Transforming gradient to internals      .... done
Projecting the internal gradient        .... done
Number of atoms                         ....  12
Number of internal coordinates          .... 198
Current Energy                          ....  -297.053788560 Eh
Current gradient norm                   ....     0.224171629 Eh/bohr
Maximum allowed component of the step   ....  0.300
Current trust radius                    ....  0.300
Evaluating the initial hessian          ....  (Almloef) done
Projecting the Hessian                  .... done
Forming the augmented Hessian           .... done
Diagonalizing the augmented Hessian     .... done
Last element of RFO vector              ....  0.778757505
Lowest eigenvalues of augmented Hessian:
 -0.154706173  0.018323096  0.021761634  0.026152656  0.026820403
Length of the computed step             ....  0.805546105
Warning: the length of the step is outside the trust region - taking restricted step instead
The input lambda is                     ....     0.017308
   iter:   5  x=   -0.040286  g=  229.219025 f(x)=     6.066116
   iter:  10  x=   -0.484375  g=    0.761743 f(x)=     0.085285
   iter:  15  x=   -0.555355  g=    0.277909 f(x)=     0.000000
The output lambda is                    ....    -0.555355 (16 iterations)
The final length of the internal step   ....  0.300000000
Converting the step to Cartesian space:
 Initial RMS(Int)=    0.0213200716
Transforming coordinates:
 Iter   0:  RMS(Cart)=    0.0524974225 RMS(Int)=    0.0213272010
done
Storing new coordinates                 .... done

                                .--------------------.
          ----------------------|Geometry convergence|-------------------------
          Item                value                   Tolerance       Converged
          ---------------------------------------------------------------------
          RMS gradient        0.0139376082            0.0001000000      NO
          MAX gradient        0.0707798411            0.0003000000      NO
          RMS step            0.0213200716            0.0020000000      NO
          MAX step            0.0969302963            0.0040000000      NO
          -------------------------------------------------------------------------
          ........................................................
          Max(Bonds)      0.0513      Max(Angles)    1.85
          Max(Dihed)        1.28      Max(Improp)    0.00
          ---------------------------------------------------------------------

The optimization has not yet converged - more geometry cycles are needed


    ---------------------------------------------------------------------------
                         Redundant Internal Coordinates
                            (Angstroem and degrees)

        Definition                    Value    dE/dq     Step     New-Value
    ----------------------------------------------------------------------------
     1. B(B   1,B   0)                2.6138  0.038486 -0.0349    2.5789   
     2. B(B   2,B   1)                1.7928  0.070780 -0.0513    1.7415   
     3. B(B   3,B   2)                2.0920  0.046576 -0.0377    2.0542   
     4. B(B   4,B   3)                2.3508  0.025140 -0.0233    2.3274   
     5. B(B   5,B   0)                1.9855  0.035498 -0.0293    1.9562   
     6. B(B   6,B   0)                1.8154  0.031296 -0.0241    1.7913   
     7. B(B   6,B   1)                2.3829  0.023896 -0.0227    2.3603   
     8. B(B   7,B   1)                1.9063  0.026584 -0.0210    1.8853   
     9. B(B   7,B   2)                2.0174  0.049983 -0.0401    1.9773   
    10. B(B   7,B   6)                2.1898  0.037437 -0.0331    2.1566   
    11. B(B   8,B   2)                1.8284  0.044317 -0.0337    1.7946   
    12. B(B   8,B   3)                1.6851  0.017348 -0.0122    1.6728   
    13. B(B   9,B   3)                2.3634  0.015286 -0.0138    2.3497   
    14. B(B   9,B   8)                2.5346  0.010377 -0.0098    2.5248   
    15. B(B   9,B   4)                2.2843  0.015953 -0.0146    2.2697   
    16. B(B  10,B   9)                2.3535  0.047733 -0.0416    2.3119   
    17. B(B  10,B   5)                1.7256  0.034059 -0.0241    1.7015   
    18. B(B  10,B   4)                2.0088  0.059018 -0.0492    1.9596   
    19. B(B  11,B  10)                2.0931  0.063760 -0.0513    2.0418   
    20. B(B  11,B   6)                1.9374  0.041126 -0.0321    1.9053   
    21. B(B  11,B   5)                1.9232  0.022976 -0.0186    1.9046   
    22. B(B  11,B   0)                1.8446  0.023242 -0.0175    1.8271   
    23. A(B   1,B   0,B  11)          115.98 -0.001861    0.13    116.12   
    24. A(B   1,B   0,B   6)           62.04 -0.003707    0.30     62.34   
    25. A(B   6,B   0,B  11)           63.92  0.004209   -0.37     63.54   
    26. A(B   5,B   0,B   6)          110.92  0.002627   -0.25    110.67   
    27. A(B   5,B   0,B  11)           60.15 -0.002266    0.19     60.34   
    28. A(B   1,B   0,B   5)          112.90 -0.000397    0.03    112.93   
    29. A(B   0,B   1,B   7)           97.61  0.005126   -0.40     97.21   
    30. A(B   0,B   1,B   6)           42.29  0.001682   -0.05     42.24   
    31. A(B   2,B   1,B   7)           66.02 -0.000427   -0.07     65.94   
    32. A(B   2,B   1,B   6)          112.74  0.001538   -0.24    112.50   
    33. A(B   6,B   1,B   7)           60.18  0.003827   -0.36     59.82   
    34. A(B   0,B   1,B   2)          118.13 -0.000374   -0.02    118.11   
    35. A(B   1,B   2,B   8)          124.42  0.007585   -0.71    123.70   
[...]
      pz      :     0.754365  p :     2.218512
      px      :     0.660011
      py      :     0.804136
      dz2     :     0.014562  d :     0.056164
      dxz     :     0.010532
      dyz     :     0.011695
      dx2y2   :     0.010289
      dxy     :     0.009087

  9 B s       :     2.725556  s :     2.725556
      pz      :     0.753940  p :     2.219025
      px      :     0.668799
      py      :     0.796286
      dz2     :     0.014575  d :     0.056188
      dxz     :     0.010623
      dyz     :     0.011637
      dx2y2   :     0.010452
      dxy     :     0.008901

 10 B s       :     2.723120  s :     2.723120
      pz      :     0.755164  p :     2.218819
      px      :     0.868742
      py      :     0.594912
      dz2     :     0.014559  d :     0.056167
      dxz     :     0.012144
      dyz     :     0.010004
      dx2y2   :     0.008368
      dxy     :     0.011092

 11 B s       :     2.726656  s :     2.726656
      pz      :     0.756982  p :     2.218296
      px      :     0.656694
      py      :     0.804620
      dz2     :     0.014538  d :     0.056170
      dxz     :     0.010482
      dyz     :     0.011599
      dx2y2   :     0.010383
      dxy     :     0.009169



                     *******************************
                     * LOEWDIN POPULATION ANALYSIS *
                     *******************************

----------------------
LOEWDIN ATOMIC CHARGES
----------------------
   0 B :   -0.000434
   1 B :    0.000299
   2 B :    0.000131
   3 B :   -0.000369
   4 B :    0.000165
   5 B :    0.000215
   6 B :    0.000206
   7 B :   -0.000500
   8 B :    0.000326
   9 B :    0.000244
  10 B :   -0.000651
  11 B :    0.000368

-------------------------------
LOEWDIN REDUCED ORBITAL CHARGES
-------------------------------
  0 B s       :     2.675208  s :     2.675208
      pz      :     0.788677  p :     2.182364
      px      :     0.526149
      py      :     0.867538
      dz2     :     0.040559  d :     0.142862
      dxz     :     0.016634
      dyz     :     0.034198
      dx2y2   :     0.021075
      dxy     :     0.030397

  1 B s       :     2.675404  s :     2.675404
      pz      :     0.789388  p :     2.181385
      px      :     0.787700
      py      :     0.604297
      dz2     :     0.040561  d :     0.142913
      dxz     :     0.030094
      dyz     :     0.020758
      dx2y2   :     0.027779
      dxy     :     0.023721

  2 B s       :     2.675299  s :     2.675299
      pz      :     0.791704  p :     2.181626
      px      :     0.774889
      py      :     0.615033
      dz2     :     0.040542  d :     0.142944
      dxz     :     0.029479
      dyz     :     0.021295
      dx2y2   :     0.028460
      dxy     :     0.023167

  3 B s       :     2.675202  s :     2.675202
      pz      :     0.793287  p :     2.182284
      px      :     0.521489
      py      :     0.867508
      dz2     :     0.040512  d :     0.142883
      dxz     :     0.016615
      dyz     :     0.034040
      dx2y2   :     0.021152
      dxy     :     0.030565

  4 B s       :     2.675260  s :     2.675260
      pz      :     0.792951  p :     2.181619
      px      :     0.785450
      py      :     0.603218
      dz2     :     0.040544  d :     0.142956
      dxz     :     0.029981
      dyz     :     0.020744
      dx2y2   :     0.027920
      dxy     :     0.023767

  5 B s       :     2.675273  s :     2.675273
      pz      :     0.790654  p :     2.181533
      px      :     0.777136
      py      :     0.613743
      dz2     :     0.040564  d :     0.142979
      dxz     :     0.029539
      dyz     :     0.021294
      dx2y2   :     0.028388
      dxy     :     0.023194

  6 B s       :     2.675341  s :     2.675341
      pz      :     0.793331  p :     2.181517
      px      :     0.612414
      py      :     0.775772
      dz2     :     0.040518  d :     0.142936
      dxz     :     0.021261
      dyz     :     0.029439
      dx2y2   :     0.028492
      dxy     :     0.023226

  7 B s       :     2.675182  s :     2.675182
      pz      :     0.791811  p :     2.182437
      px      :     0.867518
      py      :     0.523108
      dz2     :     0.040537  d :     0.142880
      dxz     :     0.034090
      dyz     :     0.016623
      dx2y2   :     0.021123
      dxy     :     0.030508

  8 B s       :     2.675408  s :     2.675408
      pz      :     0.789363  p :     2.181360
      px      :     0.605749
      py      :     0.786248
      dz2     :     0.040555  d :     0.142905
      dxz     :     0.020777
      dyz     :     0.030079
      dx2y2   :     0.027806
      dxy     :     0.023689

  9 B s       :     2.675303  s :     2.675303
      pz      :     0.788815  p :     2.181493
      px      :     0.616298
      py      :     0.776379
      dz2     :     0.040573  d :     0.142960
      dxz     :     0.021329
      dyz     :     0.029567
      dx2y2   :     0.028362
      dxy     :     0.023130

 10 B s       :     2.675010  s :     2.675010
      pz      :     0.790671  p :     2.182706
      px      :     0.867387
      py      :     0.524649
      dz2     :     0.040574  d :     0.142935
      dxz     :     0.034139
      dyz     :     0.016641
      dx2y2   :     0.021120
      dxy     :     0.030462

 11 B s       :     2.675401  s :     2.675401
      pz      :     0.792671  p :     2.181310
      px      :     0.601735
      py      :     0.786904
      dz2     :     0.040525  d :     0.142921
      dxz     :     0.020726
      dyz     :     0.030001
      dx2y2   :     0.027876
      dxy     :     0.023793



                      *****************************
                      * MAYER POPULATION ANALYSIS *
                      *****************************

  NA   - Mulliken gross atomic population
  ZA   - Total nuclear charge
  QA   - Mulliken gross atomic charge
  VA   - Mayer's total valence
  BVA  - Mayer's bonded valence
  FA   - Mayer's free valence

  ATOM       NA         ZA         QA         VA         BVA        FA
  0 B      4.9986     5.0000     0.0014     4.2253     4.2253     0.0000
  1 B      5.0010     5.0000    -0.0010     4.2280     4.2280     0.0000
  2 B      5.0001     5.0000    -0.0001     4.2276     4.2276     0.0000
  3 B      4.9991     5.0000     0.0009     4.2259     4.2259     0.0000
  4 B      5.0004     5.0000    -0.0004     4.2278     4.2278     0.0000
  5 B      5.0008     5.0000    -0.0008     4.2284     4.2284     0.0000
  6 B      5.0004     5.0000    -0.0004     4.2277     4.2277    -0.0000
  7 B      4.9986     5.0000     0.0014     4.2254     4.2254     0.0000
  8 B      5.0010     5.0000    -0.0010     4.2279     4.2279     0.0000
  9 B      5.0008     5.0000    -0.0008     4.2283     4.2283     0.0000
 10 B      4.9981     5.0000     0.0019     4.2258     4.2258     0.0000
 11 B      5.0011     5.0000    -0.0011     4.2280     4.2280    -0.0000

  Mayer bond orders larger than 0.100000
B(  0-B ,  1-B ) :   1.0030 B(  0-B ,  2-B ) :   0.1774 B(  0-B ,  4-B ) :   0.1775 
B(  0-B ,  5-B ) :   1.0032 B(  0-B ,  6-B ) :   0.7535 B(  0-B ,  7-B ) :   0.1193 
B(  0-B , 10-B ) :   0.1194 B(  0-B , 11-B ) :   0.7540 B(  1-B ,  2-B ) :   1.0026 
B(  1-B ,  3-B ) :   0.1778 B(  1-B ,  5-B ) :   0.1789 B(  1-B ,  6-B ) :   0.7545 
B(  1-B ,  7-B ) :   0.7539 B(  1-B ,  8-B ) :   0.1195 B(  1-B , 11-B ) :   0.1194 
B(  2-B ,  3-B ) :   1.0032 B(  2-B ,  4-B ) :   0.1786 B(  2-B ,  6-B ) :   0.1195 
B(  2-B ,  7-B ) :   0.7537 B(  2-B ,  8-B ) :   0.7544 B(  2-B ,  9-B ) :   0.1194 
B(  3-B ,  4-B ) :   1.0029 B(  3-B ,  5-B ) :   0.1777 B(  3-B ,  7-B ) :   0.1193 
B(  3-B ,  8-B ) :   0.7540 B(  3-B ,  9-B ) :   0.7536 B(  3-B , 10-B ) :   0.1194 
B(  4-B ,  5-B ) :   1.0026 B(  4-B ,  8-B ) :   0.1194 B(  4-B ,  9-B ) :   0.7547 
B(  4-B , 10-B ) :   0.7540 B(  4-B , 11-B ) :   0.1196 B(  5-B ,  6-B ) :   0.1193 
B(  5-B ,  9-B ) :   0.1197 B(  5-B , 10-B ) :   0.7537 B(  5-B , 11-B ) :   0.7545 
B(  6-B ,  7-B ) :   1.0031 B(  6-B ,  8-B ) :   0.1788 B(  6-B , 10-B ) :   0.1775 
B(  6-B , 11-B ) :   1.0028 B(  7-B ,  8-B ) :   1.0030 B(  7-B ,  9-B ) :   0.1774 
B(  7-B , 11-B ) :   0.1776 B(  8-B ,  9-B ) :   1.0028 B(  8-B , 10-B ) :   0.1776 
B(  9-B , 10-B ) :   1.0030 B(  9-B , 11-B ) :   0.1790 B( 10-B , 11-B ) :   1.0028 


-------
TIMINGS
-------

Total SCF time: 0 days 0 hours 0 min 6 sec 

Total time                  ....       6.825 sec
Sum of individual times     ....       5.617 sec  ( 82.3%)

SCF preparation             ....       0.495 sec  (  7.3%)
Fock matrix formation       ....       3.991 sec  ( 58.5%)
  Startup                   ....       0.009 sec  (  0.2% of F)
  Split-RI-J                ....       1.076 sec  ( 27.0% of F)
  XC integration            ....       2.930 sec  ( 73.4% of F)
    XC Preparation          ....       0.000 sec  (  0.0% of XC)
    Basis function eval.    ....       0.383 sec  ( 13.1% of XC)
    Density eval.           ....       0.309 sec  ( 10.5% of XC)
    XC-Functional eval.     ....       0.047 sec  (  1.6% of XC)
    XC-Potential eval.      ....       0.358 sec  ( 12.2% of XC)
Diagonalization             ....       0.000 sec  (  0.0%)
Density matrix formation    ....       0.150 sec  (  2.2%)
Total Energy calculation    ....       0.273 sec  (  4.0%)
Population analysis         ....       0.207 sec  (  3.0%)
Orbital Transformation      ....       0.059 sec  (  0.9%)
Orbital Orthonormalization  ....       0.000 sec  (  0.0%)
DIIS solution               ....       0.026 sec  (  0.4%)
SOSCF solution              ....       0.415 sec  (  6.1%)
Finished LeanSCF after   6.9 sec

Maximum memory used throughout the entire LEANSCF-calculation: 11.2 MB


-------------------------------------------------------------------------------
                          DFT DISPERSION CORRECTION                            
                                                                               
                              DFTD3 V3.1  Rev 1                                
                          USING Becke-Johnson damping                          
-------------------------------------------------------------------------------
The BP86 functional is recognized
Active option DFTDOPT                   ...         4   

molecular C6(AA) [au] = 4067.225940 


            DFT-D V3
 parameters
 s6 scaling factor         :     1.0000 
 a1 scaling factor         :     0.3946 
 s8 scaling factor         :     3.2822 
 a2 scaling factor         :     4.8516 
 ad hoc parameters k1-k3   :    16.0000     1.3333    -4.0000 

 Edisp/kcal,au: -22.785161455348  -0.036310462179 
 E6   /kcal   :  -6.462191945 
 E8   /kcal   : -16.322969511 
 % E8         :  71.638594892 

-------------------------   ----------------
Dispersion correction           -0.036310462
-------------------------   ----------------


-------------------------   --------------------
FINAL SINGLE POINT ENERGY      -297.694556672268
-------------------------   --------------------

                                *** OPTIMIZATION RUN DONE ***



           ************************************************************
           *        Program running with 8 parallel MPI-processes     *
           *              working on a common directory               *
           ************************************************************

------------------------------------------------------------------------------
                              ORCA PROPERTY CALCULATIONS
------------------------------------------------------------------------------

GBWName                                 ... hex_antiprism_nn2.00_perturb2.gbw
Number of atoms                         ...     12
Number of basis functions               ...    168
Max core memory                         ...   2500 MB

Electric properties:
Dipole moment                           ... YES
Quadrupole moment                       ...  NO
Static polarizability (Dipole/Dipole)   ...  NO
Static polarizability (Dipole/Quad.)    ...  NO
Static polarizability (Quad./Quad.)     ...  NO
Static polarizability (Velocity)        ...  NO
Static hyperpolarizability              ...  NO

Atomic electric properties:
Dipole moment                           ...  NO
Quadrupole moment                       ...  NO
Static polarizability                   ...  NO

Choice of electric origin               ... Center of mass
Position of electric origin             ...    -0.102284     0.038098     0.087772

General magnetic properties:
Magnetizability                         ...  NO

EPR properties:
g-Tensor (aka g-matrix)                 ...  NO
Zero-Field splitting spin-orbit         ...  NO
Zero-field splitting spin-spin          ...  NO
Hyperfine couplings                     ...  NO (   0 nuclei)
Quadrupole couplings                    ...  NO (   0 nuclei)
Contact density                         ...  NO (   0 nuclei)

NMR properties:
Chemical shifts                         ...  NO (   0 nuclei)
Spin-rotation constants                 ...  NO (   0 nuclei)
Spin-spin couplings                     ...  NO (   0 nuclei,    0 pairs)

Choice of magnetic origin               ... GIAO
Position of magnetic origin             ...     0.000000     0.000000     0.000000

Properties with geometric perturbations:
SCF Hessian                             ...  NO
IR spectrum                             ...  NO
VCD spectrum                            ...  NO
X-ray spectroscopy properties:
SCF XES/XAS/RIXS spectra                ...  NO

SCF SOC stabilization energy            ...  NO
Diagonal Born-Oppenheimer correction    ...  NO

-------------
DIPOLE MOMENT
-------------

Method             : SCF
Type of density    : Electron Density
Multiplicity       :   1
Irrep              :   0
Energy             :  -297.6582462100890325 Eh
Basis              : AO
                                X                 Y                 Z
Electronic contribution:      0.000007224       0.000070952       0.000026647
Nuclear contribution   :      0.000000000       0.000000000      -0.000000000
                        -----------------------------------------
Total Dipole Moment    :      0.000007224       0.000070952       0.000026647
                        -----------------------------------------
Magnitude (a.u.)       :      0.000076134
Magnitude (Debye)      :      0.000193517



--------------------
Rotational spectrum 
--------------------
 
Rotational constants in cm-1:             0.068520             0.068512             0.048303 
Rotational constants in MHz :          2054.174329          2053.932593          1448.096057 

Dipole components along the rotational axes: 
x,y,z [a.u.] :    -0.000070    -0.000012     0.000026 
x,y,z [Debye]:    -0.000179    -0.000030     0.000067 

 

Dipole moment calculation done in   0.1 sec 

Maximum memory used throughout the entire PROP-calculation: 8.8 MB

--------------------------------
SUGGESTED CITATIONS FOR THIS RUN
--------------------------------

Below you find a list of papers that are relevant to this ORCA run
We neither can nor want to force you to cite these papers, but we appreciate if you do
You receive ORCA, which is the product of decades of hard work by many enthusiastic individuals, for free
The only thing we kindly ask in return is that you cite our papers,
We deeply appreciate it, if you show your appreciation for ORCA by not just citing the generic ORCA reference.

Please note that relegating all ORCA citations to the supporting information does *not* help us.
SI sections are not indexed - citations you put there will not count into any citation statistics
But we need these citations in order to attract the funding resources that allow us to do what we are doing

Therefore, if you are a happy ORCA user, please consider citing a few of the papers listed below in the main body of your paper

In addition to the list printed below, the program has created the file hex_antiprism_nn2.00_perturb2.bibtex that contains the list in bibtex format
You can import this file easily into all common literature databanks and citation aid programs

It goes without saying that in many instances, there are alternative algorithms to achieve similar
results as the ones you have gotten from ORCA. It is, of course, also the case that in some instances
ORCA just re-implements algorithms worked out by others. We are fully aware of that and we are also
fully appreciative of our colleagues work. Hence this citation list should not be read as indicating
that the listed papers, which are focused on our own work, are the only ones worth citing. It simply
meant to make it easier for users to cite ORCA specific papers. It is not a substitute for doing your
own literature research and citing the relevant literature in a scientifically appropriate manner.

List of essential papers. We consider these as the minimum necessary citations

  1. Neese, F.
     Software update: the ORCA program system, version 6.0
     WIRES Comput. Molec. Sci. 2025 15(1), e70019
     doi.org/10.1002/wcms.70019

List of papers to cite with high priority. The work reported in these papers was absolutely
necessary for this run to complete.
Our perspective: the developers of density functionals and basis sets usually get cited in chemistry papers
Good! But without the algorithms to do something with them, the functionals or basis sets would not do anything.
Hence, in our opinion, the algorithm design and method developments papers are equally worthy of getting cited

  1. Neese, F.
     An improvement of the resolution of the identity approximation for the formation of the Coulomb matrix
     J. Comp. Chem. 2003 24(14), 1740-1747
     doi.org/10.1002/jcc.10318
  2. Grimme, S.; Antony, J.; Ehrlich, S.; Krieg, H.
     A consistent and accurate ab initio parametrization of density functional dispersion correction (DFT-D) for the 94 elements H-Pu
     J. Chem. Phys. 2010 132 , 154104
     doi.org/10.1063/1.3382344
  3. Grimme, S.; Ehrlich, S.; Goerigk, L.
     Effect of the damping function in dispersion corrected density functional theory
     J. Comput. Chem. 2011 32(7), 1456-1465
     doi.org/10.1002/jcc.21759
  4. Neese, F.
     The SHARK Integral Generation and Digestion System
     J. Comp. Chem. 2022 44(3), 381
     doi.org/10.1002/jcc.26942

List of suggested additional citations. These are papers that are important in the 'surrounding' of 
of this run, or papers that preceded the highly important papers. If you like your results we are grateful for a citation.

  1. Neese, F.
     The ORCA program system
     WIRES Comput. Molec. Sci. 2012 2(1), 73-78
     doi.org/10.1002/wcms.81
  2. Neese, F.
     Software update: the ORCA program system, version 4.0
     WIRES Comput. Molec. Sci. 2018 8(1), 1-6
     doi.org/10.1002/wcms.1327
  3. Neese, F.; Wennmohs, F.; Becker, U.; Riplinger, C.
     The ORCA quantum chemistry program package
     J. Chem. Phys. 2020 152(22), 224108
     doi.org/10.1063/5.0004608
  4. Neese, F.
     Software update: The ORCA program system—Version 5.0
     WIRES Comput. Molec. Sci. 2022 12(1), e1606
     doi.org/10.1002/wcms.1606

List of optional additional citations

  1. Neese, F.
     Approximate second-order SCF convergence for spin unrestricted wavefunctions
     Chem. Phys. Lett. 2000 325(1-3), 93-98
     doi.org/10.1016/s0009-2614(00)00662-x

Timings for individual modules:

Sum of individual times          ...      397.015 sec (=   6.617 min)
Startup calculation              ...       52.121 sec (=   0.869 min)  13.1 %
SCF iterations                   ...      281.598 sec (=   4.693 min)  70.9 %
Property calculations            ...        0.964 sec (=   0.016 min)   0.2 %
SCF Gradient evaluation          ...       61.910 sec (=   1.032 min)  15.6 %
Geometry relaxation              ...        0.421 sec (=   0.007 min)   0.1 %
                             ****ORCA TERMINATED NORMALLY****
TOTAL RUN TIME: 0 days 0 hours 6 minutes 57 seconds 52 msec
