
                                 *****************
                                 * O   R   C   A *
                                 *****************

                                            #,                                       
                                            ###                                      
                                            ####                                     
                                            #####                                    
                                            ######                                   
                                           ########,                                 
                                     ,,################,,,,,                         
                               ,,#################################,,                 
                          ,,##########################################,,             
                       ,#########################################, ''#####,          
                    ,#############################################,,   '####,        
                  ,##################################################,,,,####,       
                ,###########''''           ''''###############################       
              ,#####''   ,,,,##########,,,,          '''####'''          '####       
            ,##' ,,,,###########################,,,                        '##       
           ' ,,###''''                  '''############,,,                           
         ,,##''                                '''############,,,,        ,,,,,,###''
      ,#''                                            '''#######################'''  
     '                                                          ''''####''''         
             ,#######,   #######,   ,#######,      ##                                
            ,#'     '#,  ##    ##  ,#'     '#,    #''#        ,####,    ,#,          
            ##       ##  ##   ,#'  ##            #'  '#       #'       ,# #          
            ##       ##  #######   ##           ,######,      #####,      #          
            '#,     ,#'  ##    ##  '#,     ,#' ,#      #,     #,   #      #          
             '#######'   ##     ##  '#######'  #'      '#     '####' #    #          



                #########################################################
                #                        -***-                          #
                #          Department of theory and spectroscopy        #
                #                                                       #
                #                      Frank Neese                      #
                #                                                       #
                #     Directorship, Architecture, Infrastructure        #
                #                    SHARK, DRIVERS                     #
                #        Core code/Algorithms in most modules           #
                #                                                       #
                #        Max Planck Institute fuer Kohlenforschung      #
                #                Kaiser Wilhelm Platz 1                 #
                #                 D-45470 Muelheim/Ruhr                 #
                #                      Germany                          #
                #                                                       #
                #                  All rights reserved                  #
                #                        -***-                          #
                #########################################################


                         Program Version 6.1.1  -  RELEASE   -
                                (GIT: $487d211c$)
                          ($2025-11-21 10:33:24 +0100$)
                                                                         
                                  - NO-DMRG VERSION -                    
                                                                         


 With contributions from (in alphabetic order):
[Max-Planck-Institut fuer Kohlenforschung]                               
  Daniel Aravena         : Magnetic Suceptibility                        
  Michael Atanasov       : Ab Initio Ligand Field Theory (pilot matlab implementation)
  Alexander A. Auer      : GIAO ZORA, VPT2 properties, NMR spectrum      
  Ute Becker             : All parallelization in ORCA, NUMFREQ, NUMCALC 
  Giovanni Bistoni       : ED, misc. LED, open-shell LED, HFLD           
  Dmytro Bykov           : pre 5.0 version of the SCF Hessian            
  Marcos Casanova-Páez   : Triplet and SCS-CIS(D). UHF-(DLPNO)-IP/EA/STEOM-CCSD. UHF-CVS-IP/STEOM-CCSD   
  Vijay G. Chilkuri      : MRCI spin determinant printing, contributions to CSF-ICE 
  Pauline Colinet        : FMM embedding                                 
  Dipayan Datta          : RHF DLPNO-CCSD density                        
  Achintya Kumar Dutta   : EOM-CC, STEOM-CC                              
  Nicolas Foglia         : Exact transition moments, OPA infrastructure, MCD improvements    
  Dmitry Ganyushin       : Spin-Orbit,Spin-Spin,Magnetic field MRCI      
  Miquel Garcia-Rates    : C-PCM and meta-GGA Hessian, CCSD/C-PCM, Gaussian charge scheme 
  Tiago L. C. Gouveia    : GS-ROHF, GS-ROCIS                             
  Yang Guo               : DLPNO-NEVPT2, F12-NEVPT2, CIM, IAO-localization        
  Andreas Hansen         : Spin unrestricted coupled pair/coupled cluster methods 
  Ingolf Harden          : AUTO-CI MPn and infrastructure                
  Benjamin Helmich-Paris : MC-RPA, TRAH-(SCF,CASSCF), AVAS, COSX integrals, SCF dyn. polar., MC-PDFT, srDFT 
  Lee Huntington         : MR-EOM, pCC                                   
  Robert Izsak           : Overlap fitted RIJCOSX, COSX-SCS-MP3, EOM     
  Riya Kayal             : Wick's Theorem for AUTO-CI, AUTO-CI UHF-CCSDT 
  Emily Kempfer          : AUTO-CI RHF CISDT and CCSDT, approximate NEVPT4
  Christian Kollmar      : KDIIS, OOCD, Brueckner-CCSD(T), CCSD density, CASPT2, CASPT2-K, improved NEVPT2 
  Axel Koslowski         : Symmetry handling                             
  Simone Kossmann        : meta-GGA functionals, TD-DFT gradient, OOMP2, (MP2 Hessian; deprecated post 5.0) 
  Lucas Lang             : DCDCAS, Hyperfine gauge corrections, ICE-SOC+SSC
  Marvin Lechner         : AUTO-CI (C++ implementation), FIC-MRCC        
  Spencer Leger          : CASSCF response                               
  Dagmar Lenk            : GEPOL surface, SMD, ORCA-2-JSON               
  Dimitrios Liakos       : Extrapolation schemes; Compound Job, Property file
  Dimitrios Manganas     : Further ROCIS development; embedding schemes. LFT, Crystal Embedding 
  Dimitrios Pantazis     : SARC Basis sets                               
  Anastasios Papadopoulos: AUTO-CI, single reference methods and gradients 
  Taras Petrenko         : pre 6.0 DFT Hessian and TD-DFT gradient,  ECA, NRVS 
  Petra Pikulova         : Analytic Raman intensities                    
  Peter Pinski           : DLPNO-MP2, DLPNO-MP2 Gradient                 
  Shashank Vittal Rao    : ES-AILFT, MagRelax                            
  Christoph Reimann      : Effective Core Potentials                     
  Marius Retegan         : Local ZFS, SOC                                
  Christoph Riplinger    : Optimizer, TS searches, QM/MM, DLPNO-CCSD(T), (RO)-DLPNO pert. Triples 
  Michael Roemelt        : Original ROCIS implementation, recursive CI coupling coefficients
  Masaaki Saitow         : Open-shell DLPNO-CCSD energy and density      
  Barbara Sandhoefer     : DKH picture change effects                    
  Yorick L. A. Schmerwitz: GMF and freeze-and-release deltaSCF, NEB S-IDPP initial path                    
  Kantharuban Sivalingam : CASSCF convergence/infrastructure, NEVPT2, NEVPT3, NEVPT4(SD), FIC-MRCI and CEPA variants
  Bernardo de Souza      : ESD, SOC TD-DFT                               
  Georgi L. Stoychev     : AutoAux, RI-MP2 NMR, DLPNO-MP2 response, X2C  
  Van Anh Tran           : RI-MP2 g-tensors                              
  Willem Van den Heuvel  : Paramagnetic NMR                              
  Zikuan Wang            : NOTCH, Electric field optimization            
  Frank Wennmohs         : Technical directorship and infrastructure     
  Hang Xu                : AUTO-CI-Response properties                   
                                                                         
[FACCTs GmbH]                                                            
  Markus Bursch, Nicolas Foglia, Miquel Garcia-Rates, Ingolf Harden, Hagen Neugebauer, Anastasios Papadopoulos, 
  Christoph Riplinger, Bernardo de Souza, Georgi L. Stoychev                                                    
                                                                 
  APM, various basis sets, CI-OPT, improved COSX, DLPNO-Multilevel,           
  DOCKER, DRACO, updates on ESD, Fragmentator, GOAT, IRC, LR-CPCM, L-BFGS, MBIS, meta-GGA TD-DFT gradient, ML-optimized integration grids, 
  MM, NACMEs, nearIR, NEB, NEB-TS, NL-DFT gradient (VV10), 2- and 3-layer-ONIOM, interface openCOSMO-RS, QMMM,   
  Crystal-QMMM, RESP, rigid body optimization, SF, symmetry and pop. for TD-DFT, various functionals, SOLVATOR                                   
                                                                         
[Other institutions]                                                     
  V. Asgeirsson          : NEB                                           
  Christoph Bannwarth    : sTDA-DFT, sTD-DFT, PBEh-3c, B97-3c, D3        
  Giovanni Bistoni       : ETS/NOCV, ADLD/ADEX, COVALED                  
  Martin Brehm           : Molecular dynamics                            
  Ronald Cardenas        : ETS/NOCV                                      
  Martina Colucci        : COVALED                                       
  Sebastian Ehlert       : rSCAN, r2SCAN, r2SCAN-3c, D4, dhf basis sets  
  Marvin Friede          : D4 for Fr, Ra, Ac-Lr                          
  Lars Goerigk           : TD-DFT with DH, B97 family of functionals     
  Stefan Grimme          : VdW corrections, initial TS optimization, DFT functionals, gCP, sTDA/sTD-DF 
  Waldemar Hujo          : DFT-NL                                        
  H. Jonsson             : NEB                                           
  Holger Kruse           : gCP                                           
  Marcel Mueller         : wB97X-3c, vDZP basis set                      
  Hagen Neugebauer       : wr2SCAN, Native XTB                           
  Gianluca Regni         : ADLD/ADEX                                     
  Tobias Risthaus        : pre 6.0 range-separated hybrid DFT and stability analysis
  Lukas Wittmann         : regularized MP2, r2SCAN double-hybrids, wr2SCAN        
                                                                         
We gratefully acknowledge several colleagues who have allowed us to      
interface, adapt or use parts of their codes:                            
  Ed Valeev, F. Pavosevic, A. Kumar             : LibInt (2-el integral package), F12 methods 
  Garnet Chan, S. Sharma, J. Yang, R. Olivares  : DMRG                   
  Ulf Ekstrom                                   : XCFun DFT Library      
  Mihaly Kallay                                 : mrcc  (arbitrary order and MRCC methods)
  Frank Weinhold                                : gennbo (NPA and NBO analysis)           
  Simon Mueller                                 : openCOSMO-RS                            
  Christopher J. Cramer and Donald G. Truhlar   : smd solvation model                     
  S Lehtola, MJT Oliveira, MAL Marques          : LibXC Library                           
  Liviu Ungur et al                             : ANISO software                          


 Your calculation uses the libint2 library for the computation of 2-el integrals
 For citations please refer to: http://libint.valeyev.net

 Your ORCA version has been built with support for libXC version: 7.0.0
 For citations please refer to: https://libxc.gitlab.io

 This ORCA versions uses:
   CBLAS   interface :  Fast vector & matrix operations
   LAPACKE interface :  Fast linear algebra routines
   SCALAPACK package :  Parallel linear algebra routines
   Shared memory     :  Shared parallel matrices
   BLAS/LAPACK       :  OpenBLAS 0.3.29  USE64BITINT DYNAMIC_ARCH NO_AFFINITY Zen SINGLE_THREADED
        Core in use  :  Zen
   Copyright (c) 2011-2014, The OpenBLAS Project


  ***********************************
  * Starting time: Thu Apr 23 17:39:46 2026
  * Host name:     vmi3233575
  * Process ID:    1373990
  * Working dir.:  /root/b12_scan/jobs/icosahedron_nn1.70_perturb2
  ***********************************

NOTE: MaxCore=2500 MB was set to SCF,MP2,MDCI,CIPSI,MRCI,RASCI and CIS
      => If you want to overwrite this, your respective input block should be placed after the MaxCore statement
Your calculation utilizes the atom-pairwise dispersion correction
with the Becke-Johnson damping scheme (D3BJ)


================================================================================

----- Orbital basis set information -----
Your calculation utilizes the basis: def2-SVP
   F. Weigend and R. Ahlrichs, Phys. Chem. Chem. Phys. 7, 3297 (2005).

----- AuxJ basis set information -----
Your calculation utilizes the auxiliary basis: def2/J
   H-Rn: F. Weigend, Phys. Chem. Chem. Phys. 8, 1057 (2006).
   Fr-Lr: K. Eichkorn, F. Weigend, O. Treutler, R. Ahlrichs; Theor. Chem. Acc. 97, 119 (1997).

================================================================================
                                        WARNINGS
                       Please study these warnings very carefully!
================================================================================


WARNING: Geometry Optimization
  ===> : Switching off AutoStart
         For restart on a previous wavefunction, please use MOREAD

================================================================================
                                       INPUT FILE
================================================================================
NAME = icosahedron_nn1.70_perturb2.inp
|  1> ! BP86 def2-SVP def2/J RI Opt TightSCF D3BJ
|  2> ! SlowConv
|  3> 
|  4> %pal nprocs 8 end
|  5> %maxcore 2500
|  6> 
|  7> %geom
|  8>   MaxIter 300
|  9> end
| 10> 
| 11> * xyz 0 1
| 12> B      0.02835801     -0.92841227     -1.43728842
| 13> B     -1.21622011     -1.10537278      0.17162488
| 14> B     -1.42414232      0.11607099     -0.80781840
| 15> B     -0.08307343     -0.70336488      1.32874541
| 16> B     -0.89932359      1.25650688      0.06824371
| 17> B      1.36044918      0.08179331     -0.94107785
| 18> B      0.01902418      0.71615889     -1.24910914
| 19> B      0.87820526     -1.32574324      0.06157559
| 20> B     -1.52694252      0.11747715      1.15850542
| 21> B     -0.24576638      0.59058828      1.14960418
| 22> B      0.97621883      1.39463624      0.16175137
| 23> B      1.48369352      0.03158577      0.89260572
| 24> *
| 25> 
| 26>                          ****END OF INPUT****
================================================================================

                       *****************************
                       * Geometry Optimization Run *
                       *****************************

Geometry optimization settings:
Update method            Update   .... BFGS
Choice of coordinates    CoordSys .... (2022) Redundant Internals
Initial Hessian          InHess   .... Almloef's Model
Max. no of cycles        MaxIter  .... 300

Convergence Tolerances:
Energy Change            TolE     ....  5.0000e-06 Eh
Max. Gradient            TolMAXG  ....  3.0000e-04 Eh/bohr
RMS Gradient             TolRMSG  ....  1.0000e-04 Eh/bohr
Max. Displacement        TolMAXD  ....  4.0000e-03 bohr
RMS Displacement         TolRMSD  ....  2.0000e-03 bohr
Strict Convergence                .... False

------------------------------------------------------------------------------
                        ORCA OPTIMIZATION COORDINATE SETUP
------------------------------------------------------------------------------

The optimization will be done in redundant internal coordinates (2022)
Making redundant internal coordinates   ...  (2022 redundants) done
Evaluating the initial hessian          ...  (Almloef) done
Evaluating the coordinates              ...  done
Calculating the B-matrix                .... done
Calculating the G-matrix                .... done
The number of degrees of freedom        ....  365

    -----------------------------------------------------------------
                    Redundant Internal Coordinates


    -----------------------------------------------------------------
         Definition                    Initial Value    Approx d2E/dq
    -----------------------------------------------------------------
      1. B(B   1,B   0)                  2.0418         0.076470   
      2. B(B   2,B   0)                  1.8966         0.130374   
      3. B(B   2,B   1)                  1.5794         0.418040   
      4. B(B   3,B   1)                  1.6687         0.301110   
      5. B(B   4,B   2)                  1.5309         0.499632   
      6. B(B   5,B   0)                  1.7439         0.228423   
      7. B(B   6,B   0)                  1.6553         0.316270   
      8. B(B   6,B   5)                  1.5155         0.528634   
      9. B(B   6,B   4)                  1.6943         0.274052   
     10. B(B   6,B   2)                  1.6241         0.354768   
     11. B(B   7,B   5)                  1.7942         0.189912   
     12. B(B   7,B   3)                  1.7080         0.260668   
     13. B(B   7,B   0)                  1.7682         0.208882   
     14. B(B   8,B   2)                  1.9690         0.099908   
     15. B(B   8,B   1)                  1.6018         0.384964   
     16. B(B   8,B   4)                  1.6970         0.271332   
     17. B(B   8,B   3)                  1.6696         0.300130   
     18. B(B   9,B   8)                  1.3658         0.916288   
     19. B(B   9,B   4)                  1.4283         0.728338   
     20. B(B   9,B   3)                  1.3164         1.098545   
     21. B(B  10,B   9)                  1.7651         0.211309   
     22. B(B  10,B   6)                  1.8350         0.163481   
     23. B(B  10,B   5)                  1.7571         0.217610   
     24. B(B  10,B   4)                  1.8829         0.137060   
     25. B(B  11,B  10)                  1.6278         0.349986   
     26. B(B  11,B   9)                  1.8356         0.163075   
     27. B(B  11,B   7)                  1.7028         0.265645   
     28. B(B  11,B   5)                  1.8385         0.161365   
     29. B(B  11,B   3)                  1.7847         0.196637   
     30. A(B   1,B   0,B   7)           66.7677         0.264274   
     31. A(B   1,B   0,B   2)           47.1065         0.246537   
     32. A(B   5,B   0,B   6)           52.8752         0.335638   
     33. A(B   2,B   0,B   7)          102.1515         0.286769   
     34. A(B   1,B   0,B   5)          106.9538         0.267857   
     35. A(B   5,B   0,B   7)           61.4356         0.313535   
     36. A(B   2,B   0,B   6)           53.9000         0.306238   
     37. A(B   1,B   0,B   6)           89.6040         0.281528   
     38. A(B   6,B   0,B   7)           97.4459         0.330696   
     39. A(B   2,B   0,B   5)           99.8776         0.290813   
     40. A(B   2,B   1,B   3)          109.4574         0.368666   
     41. A(B   2,B   1,B   8)           76.4753         0.384657   
     42. A(B   3,B   1,B   8)           61.3533         0.363497   
     43. A(B   0,B   1,B   3)           96.4083         0.279399   
     44. A(B   0,B   1,B   2)           61.6115         0.294076   
     45. A(B   0,B   1,B   8)          122.5175         0.290286   
     46. A(B   4,B   2,B   8)           56.3497         0.315841   
     47. A(B   0,B   2,B   8)          111.8283         0.256364   
     48. A(B   1,B   2,B   8)           52.2752         0.306869   
     49. A(B   0,B   2,B   4)          109.7338         0.329926   
     50. A(B   0,B   2,B   1)           71.2820         0.320397   
     51. A(B   6,B   2,B   8)          108.5106         0.298925   
     52. A(B   1,B   2,B   4)          100.1433         0.402630   
     53. A(B   4,B   2,B   6)           64.8868         0.391194   
     54. A(B   1,B   2,B   6)          109.7112         0.379241   
     55. A(B   0,B   2,B   6)           55.4414         0.311960   
     56. A(B   8,B   3,B  11)          122.1289         0.324604   
     57. A(B   7,B   3,B  11)           58.3086         0.317205   
     58. A(B   1,B   3,B   7)           77.2872         0.340311   
     59. A(B   9,B   3,B  11)           70.7587         0.405028   
     60. A(B   7,B   3,B   9)          109.0737         0.425848   
     61. A(B   1,B   3,B   9)           93.3546         0.437026   
     62. A(B   1,B   3,B  11)          121.7283         0.324778   
     63. A(B   1,B   3,B   8)           57.3492         0.348459   
     64. A(B   8,B   3,B   9)           52.8414         0.436769   
     65. A(B   7,B   3,B   8)          126.1738         0.340125   
     66. A(B   8,B   4,B   9)           50.9415         0.398726   
     67. A(B   2,B   4,B   9)          104.0526         0.444624   
     68. A(B   6,B   4,B   8)          119.0720         0.337255   
     69. A(B   2,B   4,B   8)           74.9807         0.373400   
     70. A(B   9,B   4,B  10)           62.6654         0.354368   
     71. A(B   2,B   4,B   6)           60.2175         0.374043   
     72. A(B   6,B   4,B   9)          101.0667         0.399426   
     73. A(B   8,B   4,B  10)          112.6878         0.301220   
     74. A(B   6,B   4,B  10)           61.4533         0.301700   
     75. A(B   2,B   4,B  10)          115.1221         0.332669   
     76. A(B   6,B   5,B   7)          101.7744         0.354708   
     77. A(B   0,B   5,B   7)           59.9505         0.308748   
     78. A(B   6,B   5,B  11)          105.8719         0.345091   
     79. A(B   0,B   5,B  11)          108.6133         0.300794   
     80. A(B   7,B   5,B  11)           55.8902         0.292125   
     81. A(B  10,B   5,B  11)           53.7770         0.298482   
     82. A(B   0,B   5,B   6)           60.5624         0.366048   
     83. A(B   7,B   5,B  10)          100.1734         0.306349   
     84. A(B   6,B   5,B  10)           67.7445         0.363024   
     85. A(B   0,B   5,B  10)          116.3830         0.315625   
     86. A(B   5,B   6,B  10)           62.4041         0.345847   
     87. A(B   4,B   6,B   5)          117.0790         0.377707   
     88. A(B   2,B   6,B   5)          125.2156         0.395078   
     89. A(B   0,B   6,B   5)           66.5623         0.387223   
     90. A(B   2,B   6,B   4)           54.8957         0.352787   
     91. A(B   4,B   6,B  10)           64.3426         0.310358   
     92. A(B   2,B   6,B  10)          113.0319         0.323677   
     93. A(B   0,B   6,B  10)          116.8601         0.317654   
     94. A(B   0,B   6,B   4)          114.0972         0.346017   
     95. A(B   0,B   6,B   2)           70.6585         0.361481   
     96. A(B   0,B   7,B   3)          106.0520         0.320347   
     97. A(B   5,B   7,B  11)           63.3730         0.316386   
     98. A(B   3,B   7,B  11)           63.1010         0.333283   
     99. A(B   0,B   7,B  11)          113.9205         0.321339   
    100. A(B   3,B   7,B   5)          106.2614         0.315415   
    101. A(B   0,B   7,B   5)           58.6139         0.304345   
    102. A(B   4,B   8,B   9)           54.2949         0.415244   
    103. A(B   3,B   8,B   9)           50.1881         0.422779   
    104. A(B   2,B   8,B   9)           86.8336         0.349217   
    105. A(B   1,B   8,B   9)           94.5006         0.442125   
    106. A(B   2,B   8,B   4)           48.6696         0.286564   
    107. A(B   1,B   8,B   4)           92.5699         0.357103   
    108. A(B   2,B   8,B   3)           93.2289         0.291127   
    109. A(B   1,B   8,B   3)           61.2976         0.363295   
    110. A(B   1,B   8,B   2)           51.2495         0.302842   
    111. A(B   3,B   8,B   4)           94.3391         0.342415   
    112. A(B   4,B   9,B   8)           74.7635         0.496947   
    113. A(B   3,B   9,B   8)           76.9704         0.536715   
    114. A(B   3,B   9,B   4)          128.1619         0.514046   
    115. A(B  10,B   9,B  11)           53.7086         0.297590   
    116. A(B   8,B   9,B  11)          141.1896         0.379735   
    117. A(B   4,B   9,B  11)          117.8466         0.365014   
    118. A(B   3,B   9,B  11)           66.6263         0.391921   
    119. A(B   8,B   9,B  10)          144.1806         0.397295   
    120. A(B   4,B   9,B  10)           71.3781         0.381685   
    121. A(B   3,B   9,B  10)          115.9993         0.410217   
    122. A(B   9,B  10,B  11)           65.3612         0.336949   
    123. A(B   5,B  10,B  11)           65.6678         0.338603   
    124. A(B   4,B  10,B  11)          105.7480         0.313806   
    125. A(B   6,B  10,B  11)          101.4335         0.322957   
    126. A(B   6,B  10,B   9)           84.3036         0.297708   
    127. A(B   5,B  10,B   9)           99.3404         0.311665   
    128. A(B   4,B  10,B   9)           45.9565         0.289544   
    129. A(B   5,B  10,B   6)           49.8514         0.299100   
    130. A(B   4,B  10,B   6)           54.2041         0.278228   
    131. A(B   4,B  10,B   5)           97.5755         0.290883   
    132. A(B   9,B  11,B  10)           60.9302         0.322826   
    133. A(B   5,B  11,B  10)           60.5552         0.322268   
    134. A(B   3,B  11,B  10)          100.4204         0.332943   
    135. A(B   7,B  11,B   9)           88.6280         0.308679   
    136. A(B   5,B  11,B   9)           93.9085         0.285240   
    137. A(B   3,B  11,B   9)           42.6150         0.294220   
    138. A(B   5,B  11,B   7)           60.7368         0.308155   
    139. A(B   7,B  11,B  10)          109.7248         0.350130   
    140. A(B   3,B  11,B   7)           58.5903         0.318184   
    141. A(B   3,B  11,B   5)          101.3109         0.293731   
    142. D(B   3,B   1,B   0,B   6)    -71.6058         0.010000   
    143. D(B   3,B   1,B   0,B   2)   -108.6824         0.010000   
    144. D(B   3,B   1,B   0,B   7)     26.6734         0.010000   
    145. D(B   2,B   1,B   0,B   7)    135.3558         0.010000   
    146. D(B   2,B   1,B   0,B   6)     37.0766         0.010000   
    147. D(B   3,B   1,B   0,B   5)    -20.8847         0.010000   
    148. D(B   2,B   1,B   0,B   5)     87.7977         0.010000   
    149. D(B   4,B   2,B   0,B   7)     53.0192         0.010000   
    150. D(B   0,B   2,B   1,B   3)     86.7683         0.010246   
    151. D(B   4,B   2,B   0,B   5)     -9.6601         0.010000   
    152. D(B   6,B   2,B   0,B   1)    131.7435         0.010000   
    153. D(B   4,B   2,B   0,B   1)     94.3588         0.010000   
    154. D(B   6,B   2,B   1,B   0)    -40.7471         0.010246   
    155. D(B   1,B   2,B   0,B   7)    -41.3397         0.010000   
    156. D(B   6,B   2,B   1,B   3)     46.0212         0.010246   
    157. D(B   4,B   2,B   1,B   0)   -107.5506         0.010246   
    158. D(B   0,B   2,B   1,B   8)    139.3287         0.010246   
    159. D(B   4,B   2,B   1,B   3)    -20.7823         0.010246   
    160. D(B   4,B   2,B   1,B   8)     31.7781         0.010246   
    161. D(B   1,B   2,B   0,B   5)   -104.0189         0.010000   
    162. D(B   4,B   2,B   0,B   6)    -37.3847         0.010000   
    163. D(B   1,B   2,B   0,B   6)   -131.7435         0.010000   
    164. D(B   8,B   3,B   1,B   2)     61.6006         0.010000   
    165. D(B   9,B   3,B   1,B   0)     82.8416         0.010000   
    166. D(B   7,B   3,B   1,B   8)   -149.6764         0.010000   
    167. D(B   7,B   3,B   1,B   2)    -88.0758         0.010000   
    168. D(B   8,B   3,B   1,B   0)    123.7130         0.010000   
    169. D(B   7,B   3,B   1,B   0)    -25.9634         0.010000   
    170. D(B   9,B   3,B   1,B   2)     20.7291         0.010000   
    171. D(B   6,B   4,B   2,B   0)     33.5201         0.015166   
    172. D(B   6,B   4,B   2,B   1)    107.1304         0.015166   
    173. D(B   8,B   4,B   2,B   1)    -30.0259         0.015166   
    174. D(B   8,B   4,B   2,B   6)   -137.1563         0.015166   
    175. D(B   9,B   4,B   2,B   1)     12.2694         0.015166   
    176. D(B   6,B   4,B   2,B   8)    137.1563         0.015166   
    177. D(B   8,B   4,B   2,B   0)   -103.6362         0.015166   
    178. D(B   9,B   4,B   2,B   0)    -61.3409         0.015166   
    179. D(B   6,B   5,B   0,B   2)    -28.1282         0.010000   
    180. D(B   6,B   5,B   0,B   7)   -126.6670         0.010000   
    181. D(B   7,B   5,B   0,B   1)     50.5431         0.010000   
    182. D(B   7,B   5,B   0,B   2)     98.5388         0.010000   
    183. D(B   7,B   5,B   0,B   6)    126.6670         0.010000   
    184. D(B  10,B   5,B   0,B   1)    -36.0642         0.010000   
    185. D(B  10,B   5,B   0,B   2)     11.9314         0.010000   
    186. D(B   6,B   5,B   0,B   1)    -76.1238         0.010000   
    187. D(B   5,B   6,B   2,B   0)    -40.2065         0.010000   
    188. D(B   0,B   6,B   2,B   8)    104.2126         0.010000   
    189. D(B   0,B   6,B   4,B   2)    -40.7229         0.010000   
    190. D(B   4,B   6,B   2,B   1)    -92.2165         0.010000   
    191. D(B   4,B   6,B   0,B   2)     34.4480         0.010000   
    192. D(B   4,B   6,B   0,B   1)      1.3109         0.010000   
    193. D(B   4,B   6,B   0,B   5)   -110.4642         0.010000   
    194. D(B   0,B   6,B   2,B   1)     48.6471         0.010000   
    195. D(B   5,B   6,B   2,B   1)      8.4406         0.010000   
    196. D(B   4,B   6,B   2,B   8)    -36.6510         0.010000   
    197. D(B   4,B   6,B   2,B   0)   -140.8636         0.010000   
    198. D(B   2,B   6,B   0,B   7)    -99.6385         0.010000   
    199. D(B   4,B   6,B   0,B   7)    -65.1905         0.010000   
    200. D(B   0,B   6,B   2,B   4)    140.8636         0.010000   
    201. D(B   2,B   6,B   0,B   5)   -144.9123         0.010000   
    202. D(B   0,B   6,B   4,B   8)      7.9929         0.010000   
    203. D(B   4,B   6,B   5,B   0)    106.1496         0.016956   
    204. D(B   5,B   6,B   0,B   1)    111.7751         0.010000   
    205. D(B   2,B   6,B   5,B  10)    -99.8705         0.016956   
    206. D(B   0,B   6,B   5,B  11)   -102.7423         0.016956   
    207. D(B   0,B   6,B   5,B  10)   -141.4675         0.016956   
    208. D(B   0,B   6,B   5,B   7)    -45.1726         0.016956   
    209. D(B   2,B   6,B   5,B   0)     41.5969         0.016956   
    210. D(B   5,B   6,B   4,B   2)   -115.6114         0.010000   
    211. D(B   2,B   6,B   4,B  10)    150.2493         0.010000   
    212. D(B   2,B   6,B   5,B   7)     -3.5756         0.016956   
    213. D(B   2,B   6,B   4,B   9)     99.9699         0.010000   
    214. D(B   2,B   6,B   4,B   8)     48.7158         0.010000   
    215. D(B   0,B   6,B   4,B  10)    109.5264         0.010000   
    216. D(B   0,B   6,B   4,B   9)     59.2470         0.010000   
    217. D(B   2,B   6,B   5,B  11)    -61.1454         0.016956   
    218. D(B   2,B   6,B   0,B   1)    -33.1371         0.010000   
    219. D(B   3,B   7,B   5,B  11)     47.6682         0.010000   
    220. D(B   3,B   7,B   5,B  10)     15.5181         0.010000   
    221. D(B   3,B   7,B   5,B   6)    -53.6485         0.010000   
    222. D(B   0,B   7,B   5,B  11)    146.8433         0.010000   
    223. D(B   0,B   7,B   5,B  10)    114.6931         0.010000   
    224. D(B   3,B   7,B   0,B   6)     59.3784         0.010000   
    225. D(B   0,B   7,B   3,B  11)   -109.0953         0.010000   
    226. D(B   0,B   7,B   3,B   1)     31.5165         0.010000   
    227. D(B   0,B   7,B   3,B   8)     -0.2605         0.010000   
    228. D(B   5,B   7,B   0,B   6)    -40.1647         0.010000   
    229. D(B   5,B   7,B   3,B   1)     92.7926         0.010000   
    230. D(B   5,B   7,B   0,B   2)    -94.7364         0.010000   
    231. D(B   5,B   7,B   0,B   1)   -126.5133         0.010000   
    232. D(B   5,B   7,B   3,B   8)     61.0156         0.010000   
    233. D(B   3,B   7,B   0,B   5)     99.5431         0.010000   
    234. D(B   0,B   7,B   3,B   9)    -57.6508         0.010000   
    235. D(B   3,B   7,B   5,B   0)    -99.1750         0.010000   
    236. D(B   3,B   7,B   0,B   2)      4.8067         0.010000   
    237. D(B   3,B   7,B   0,B   1)    -26.9702         0.010000   
    238. D(B   0,B   7,B   5,B   6)     45.5265         0.010000   
    239. D(B   5,B   7,B   3,B   9)      3.6253         0.010000   
    240. D(B   2,B   8,B   4,B   6)    -42.4744         0.010000   
    241. D(B   1,B   8,B   4,B  10)    -82.2736         0.010000   
    242. D(B   1,B   8,B   4,B   9)    -93.6965         0.010000   
    243. D(B   1,B   8,B   4,B   2)     29.0885         0.010000   
    244. D(B   4,B   8,B   3,B   1)    -90.5570         0.010000   
    245. D(B   2,B   8,B   3,B  11)     67.7948         0.010000   
    246. D(B   2,B   8,B   3,B   7)     -4.1880         0.010000   
    247. D(B   2,B   8,B   3,B   1)    -41.7861         0.010000   
    248. D(B   1,B   8,B   3,B  11)    109.5809         0.010000   
    249. D(B   1,B   8,B   3,B   9)    124.9491         0.010000   
    250. D(B   1,B   8,B   3,B   7)     37.5981         0.010000   
    251. D(B   4,B   8,B   2,B   0)     99.8063         0.010000   
    252. D(B   3,B   8,B   2,B   6)    -52.4509         0.010000   
    253. D(B   1,B   8,B   2,B   6)   -100.9928         0.010000   
    254. D(B   4,B   8,B   1,B   2)    -27.9113         0.010000   
    255. D(B   4,B   8,B   1,B   0)     14.9278         0.010000   
    256. D(B   3,B   8,B   1,B   2)   -121.4526         0.010000   
    257. D(B   3,B   8,B   1,B   0)    -78.6135         0.010000   
    258. D(B   4,B   8,B   1,B   3)     93.5414         0.010000   
    259. D(B   2,B   8,B   3,B   9)     83.1630         0.010000   
    260. D(B   2,B   8,B   1,B   3)    121.4526         0.010000   
    261. D(B   2,B   8,B   1,B   0)     42.8391         0.010000   
    262. D(B   1,B   8,B   2,B   4)   -141.4827         0.010000   
    263. D(B   1,B   8,B   4,B   6)    -13.3859         0.010000   
    264. D(B   1,B   8,B   2,B   0)    -41.6764         0.010000   
    265. D(B   3,B   8,B   2,B   4)    -92.9407         0.010000   
    266. D(B   3,B   8,B   2,B   1)     48.5420         0.010000   
    267. D(B   2,B   8,B   4,B   9)   -122.7850         0.010000   
    268. D(B   3,B   8,B   2,B   0)      6.8656         0.010000   
    269. D(B   3,B   8,B   4,B   2)     90.4866         0.010000   
    270. D(B   2,B   8,B   4,B  10)   -111.3621         0.010000   
    271. D(B  10,B   9,B   8,B   2)     19.7622         0.053982   
    272. D(B  10,B   9,B   8,B   1)     70.4771         0.053982   
    273. D(B   4,B   9,B   8,B   2)     39.2174         0.053982   
    274. D(B   4,B   9,B   8,B   1)     89.9323         0.053982   
    275. D(B   3,B   9,B   8,B   4)   -136.0834         0.053982   
    276. D(B   3,B   9,B   8,B   2)    -96.8660         0.053982   
    277. D(B   3,B   9,B   8,B   1)    -46.1512         0.053982   
    278. D(B  10,B   9,B   4,B   2)    111.3013         0.032842   
    279. D(B   8,B   9,B   4,B  10)   -168.1300         0.032842   
    280. D(B   8,B   9,B   4,B   6)   -118.6140         0.032842   
    281. D(B   8,B   9,B   4,B   2)    -56.8287         0.032842   
    282. D(B   3,B   9,B   4,B  10)   -108.8759         0.032842   
    283. D(B   3,B   9,B   4,B   8)     59.2540         0.032842   
    284. D(B   3,B   9,B   4,B   6)    -59.3599         0.032842   
    285. D(B   3,B   9,B   4,B   2)      2.4253         0.032842   
    286. D(B  10,B   9,B   3,B   1)   -100.6696         0.080839   
    287. D(B   8,B   9,B   3,B  11)    166.2484         0.080839   
    288. D(B   8,B   9,B   3,B   7)    121.4375         0.080839   
    289. D(B   8,B   9,B   3,B   1)     43.7346         0.080839   
    290. D(B   4,B   9,B   3,B  11)    107.9118         0.080839   
    291. D(B   4,B   9,B   8,B   3)    136.0834         0.053982   
    292. D(B   4,B   9,B   3,B   8)    -58.3366         0.080839   
    293. D(B   4,B   9,B   3,B   7)     63.1009         0.080839   
    294. D(B   4,B   9,B   3,B   1)    -14.6020         0.080839   
    295. D(B   6,B  10,B   9,B   3)     80.2906         0.010000   
    296. D(B   5,B  10,B   9,B  11)     57.6678         0.010000   
    297. D(B   5,B  10,B   9,B   4)    -91.5352         0.010000   
    298. D(B   5,B  10,B   9,B   3)     32.5963         0.010000   
    299. D(B   4,B  10,B   9,B  11)    149.2030         0.010000   
    300. D(B   4,B  10,B   9,B   8)     19.8231         0.010000   
    301. D(B   4,B  10,B   9,B   3)    124.1314         0.010000   
    302. D(B   9,B  10,B   6,B   2)     11.6918         0.010000   
    303. D(B   9,B  10,B   6,B   0)    -67.4664         0.010000   
    304. D(B   5,B  10,B   6,B   2)    119.0009         0.010000   
    305. D(B   5,B  10,B   6,B   0)     39.8427         0.010000   
    306. D(B   4,B  10,B   6,B   5)   -145.1769         0.010000   
    307. D(B   4,B  10,B   6,B   2)    -26.1760         0.010000   
    308. D(B   4,B  10,B   6,B   0)   -105.3342         0.010000   
    309. D(B   9,B  10,B   5,B   0)     37.0428         0.010000   
    310. D(B   6,B  10,B   5,B  11)   -131.7635         0.010000   
    311. D(B   6,B  10,B   5,B   7)    -98.6601         0.010000   
    312. D(B   6,B  10,B   5,B   0)    -37.2725         0.010000   
    313. D(B   4,B  10,B   5,B  11)   -103.9071         0.010000   
    314. D(B   4,B  10,B   5,B   7)    -70.8037         0.010000   
    315. D(B   5,B  10,B   6,B   4)    145.1769         0.010000   
    316. D(B   4,B  10,B   5,B   6)     27.8563         0.010000   
    317. D(B   4,B  10,B   5,B   0)     -9.4162         0.010000   
    318. D(B   9,B  10,B   4,B   2)    -93.4118         0.010000   
    319. D(B   6,B  10,B   4,B   9)    121.8155         0.010000   
    320. D(B   6,B  10,B   4,B   8)    111.8465         0.010000   
    321. D(B   6,B  10,B   4,B   2)     28.4037         0.010000   
    322. D(B   5,B  10,B   4,B   9)     95.6902         0.010000   
    323. D(B   5,B  10,B   9,B   8)    -71.7121         0.010000   
    324. D(B   5,B  10,B   4,B   8)     85.7212         0.010000   
    325. D(B   5,B  10,B   4,B   6)    -26.1253         0.010000   
    326. D(B   5,B  10,B   4,B   2)      2.2784         0.010000   
    327. D(B   7,B  11,B  10,B   4)     54.3147         0.010000   
    328. D(B   5,B  11,B  10,B   6)     35.5696         0.010000   
    329. D(B   5,B  11,B  10,B   4)     91.3072         0.010000   
    330. D(B   3,B  11,B  10,B   9)     16.5969         0.010000   
    331. D(B   3,B  11,B  10,B   5)    -97.1917         0.010000   
    332. D(B   3,B  11,B  10,B   4)     -5.8845         0.010000   
    333. D(B   7,B  11,B   9,B   3)     41.9346         0.010000   
    334. D(B   5,B  11,B   9,B   8)     80.7939         0.010000   
    335. D(B   5,B  11,B   9,B   4)    -19.7259         0.010000   
    336. D(B   5,B  11,B   9,B   3)    102.4797         0.010000   
    337. D(B   3,B  11,B   9,B  10)   -155.4860         0.010000   
    338. D(B   3,B  11,B   9,B   8)    -21.6859         0.010000   
    339. D(B   3,B  11,B   9,B   4)   -122.2057         0.010000   
    340. D(B   9,B  11,B   7,B   5)     95.2544         0.010000   
    341. D(B   9,B  11,B   7,B   0)     64.5390         0.010000   
    342. D(B   5,B  11,B   7,B   3)   -127.2708         0.010000   
    343. D(B   5,B  11,B   7,B   0)    -30.7154         0.010000   
    344. D(B   3,B  11,B   7,B   5)    127.2708         0.010000   
    345. D(B   3,B  11,B   7,B   0)     96.5554         0.010000   
    346. D(B   9,B  11,B   5,B   0)    -56.2574         0.010000   
    347. D(B   9,B  11,B   7,B   3)    -32.0164         0.010000   
    348. D(B   7,B  11,B   5,B  10)    139.5141         0.010000   
    349. D(B   7,B  11,B   5,B   6)     93.6495         0.010000   
    350. D(B   7,B  11,B   5,B   0)     29.9702         0.010000   
    351. D(B   3,B  11,B   5,B  10)     95.6759         0.010000   
    352. D(B   3,B  11,B   5,B   7)    -43.8382         0.010000   
    353. D(B   3,B  11,B   5,B   6)     49.8113         0.010000   
    354. D(B   3,B  11,B   5,B   0)    -13.8680         0.010000   
    355. D(B   5,B  11,B   9,B  10)    -53.0063         0.010000   
    356. D(B   9,B  11,B   3,B   1)     81.7816         0.010000   
    357. D(B   7,B  11,B   3,B   9)   -128.4823         0.010000   
    358. D(B   7,B  11,B   3,B   8)   -115.5553         0.010000   
    359. D(B   3,B  11,B  10,B   6)    -61.6221         0.010000   
    360. D(B   7,B  11,B   3,B   1)    -46.7007         0.010000   
    361. D(B   5,B  11,B   3,B   9)    -83.4117         0.010000   
    362. D(B   5,B  11,B   3,B   8)    -70.4846         0.010000   
    363. D(B   5,B  11,B  10,B   9)    113.7886         0.010000   
    364. D(B   5,B  11,B   3,B   7)     45.0707         0.010000   
    365. D(B   5,B  11,B   3,B   1)     -1.6300         0.010000   
    -----------------------------------------------------------------

Number of atoms                         .... 12
Number of degrees of freedom            .... 365


         *************************************************************
         *                GEOMETRY OPTIMIZATION CYCLE   1            *
         *************************************************************
---------------------------------
CARTESIAN COORDINATES (ANGSTROEM)
---------------------------------
  B      0.028358   -0.928412   -1.437288
  B     -1.216220   -1.105373    0.171625
  B     -1.424142    0.116071   -0.807818
  B     -0.083073   -0.703365    1.328745
  B     -0.899324    1.256507    0.068244
  B      1.360449    0.081793   -0.941078
  B      0.019024    0.716159   -1.249109
  B      0.878205   -1.325743    0.061576
  B     -1.526943    0.117477    1.158505
  B     -0.245766    0.590588    1.149604
  B      0.976219    1.394636    0.161751
  B      1.483694    0.031586    0.892606

----------------------------
CARTESIAN COORDINATES (A.U.)
----------------------------
  NO LB      ZA    FRAG     MASS         X           Y           Z
   0 B     5.0000    0    10.810    0.053589   -1.754445   -2.716081
   1 B     5.0000    0    10.810   -2.298323   -2.088852    0.324324
   2 B     5.0000    0    10.810   -2.691239    0.219342   -1.526556
   3 B     5.0000    0    10.810   -0.156986   -1.329167    2.510965
   4 B     5.0000    0    10.810   -1.699475    2.374454    0.128962
   5 B     5.0000    0    10.810    2.570876    0.154567   -1.778379
   6 B     5.0000    0    10.810    0.035950    1.353344   -2.360474
   7 B     5.0000    0    10.810    1.659567   -2.505292    0.116361
   8 B     5.0000    0    10.810   -2.885503    0.222000    2.189258
   9 B     5.0000    0    10.810   -0.464431    1.116050    2.172437
  10 B     5.0000    0    10.810    1.844786    2.635481    0.305666
  11 B     5.0000    0    10.810    2.803774    0.059688    1.686780

--------------------------------
INTERNAL COORDINATES (ANGSTROEM)
--------------------------------
 B      0   0   0     0.000000000000     0.00000000     0.00000000
 B      1   0   0     2.041786405528     0.00000000     0.00000000
 B      2   1   0     1.579387750814    61.61148496     0.00000000
 B      2   1   3     1.668699994308    96.40826633   251.31759594
 B      3   2   1     1.530853859497   100.14332842   252.44937312
 B      1   2   3     1.743905710993   106.95382177    87.79767019
 B      6   1   2     1.515494637184    60.56242964   283.87616666
 B      4   2   1     1.707961034556    77.28719424   334.03661859
 B      2   1   3     1.601825073973   122.51752320   311.28358313
 B      4   2   1     1.316387236545    93.35455607    82.84156003
 B      6   1   2     1.757106089341   116.38295945   323.93576345
 B     11   6   1     1.627754657702    65.66783675    94.49092458

---------------------------
INTERNAL COORDINATES (A.U.)
---------------------------
 B      0   0   0     0.000000000000     0.00000000     0.00000000
 B      1   0   0     3.858417130411     0.00000000     0.00000000
 B      2   1   0     2.984610308308    61.61148496     0.00000000
 B      2   1   3     3.153385988919    96.40826633   251.31759594
 B      3   2   1     2.892894545506   100.14332842   252.44937312
 B      1   2   3     3.295504197158   106.95382177    87.79767019
 B      6   1   2     2.863869821704    60.56242964   283.87616666
 B      4   2   1     3.227578602721    77.28719424   334.03661859
 B      2   1   3     3.027010704257   122.51752320   311.28358313
 B      4   2   1     2.487611363260    93.35455607    82.84156003
 B      6   1   2     3.320449297099   116.38295945   323.93576345
 B     11   6   1     3.076010516272    65.66783675    94.49092458

---------------------
BASIS SET INFORMATION
---------------------
There are 1 groups of distinct atoms

 Group   1 Type B   : 7s4p1d contracted to 3s2p1d pattern {511/31/1}

Atom   0B    basis set group =>   1
Atom   1B    basis set group =>   1
Atom   2B    basis set group =>   1
Atom   3B    basis set group =>   1
Atom   4B    basis set group =>   1
Atom   5B    basis set group =>   1
Atom   6B    basis set group =>   1
Atom   7B    basis set group =>   1
Atom   8B    basis set group =>   1
Atom   9B    basis set group =>   1
Atom  10B    basis set group =>   1
Atom  11B    basis set group =>   1
---------------------------------
AUXILIARY/J BASIS SET INFORMATION
---------------------------------
There are 1 groups of distinct atoms

 Group   1 Type B   : 12s5p4d2f1g contracted to 6s4p3d1f1g pattern {711111/2111/211/2/1}

Atom   0B    basis set group =>   1
Atom   1B    basis set group =>   1
Atom   2B    basis set group =>   1
Atom   3B    basis set group =>   1
Atom   4B    basis set group =>   1
Atom   5B    basis set group =>   1
Atom   6B    basis set group =>   1
Atom   7B    basis set group =>   1
Atom   8B    basis set group =>   1
Atom   9B    basis set group =>   1
Atom  10B    basis set group =>   1
Atom  11B    basis set group =>   1


           ************************************************************
           *        Program running with 8 parallel MPI-processes     *
           *              working on a common directory               *
           ************************************************************
------------------------------------------------------------------------------
                             ORCA STARTUP CALCULATIONS
                           -- RI-GTO INTEGRALS CHOSEN --
------------------------------------------------------------------------------
------------------------------------------------------------------------------
                   ___                                                        
                  /   \      - P O W E R E D   B Y -                         
                 /     \                                                     
                 |  |  |   _    _      __       _____    __    __             
                 |  |  |  | |  | |    /  \     |  _  \  |  |  /  |          
                  \  \/   | |  | |   /    \    | | | |  |  | /  /          
                 / \  \   | |__| |  /  /\  \   | |_| |  |  |/  /          
                |  |  |   |  __  | /  /__\  \  |    /   |      \           
                |  |  |   | |  | | |   __   |  |    \   |  |\   \          
                \     /   | |  | | |  |  |  |  | |\  \  |  | \   \       
                 \___/    |_|  |_| |__|  |__|  |_| \__\ |__|  \__/        
                                                                              
                      - O R C A' S   B I G   F R I E N D -                    
                                      &                                       
                       - I N T E G R A L  F E E D E R -                       
                                                                              
 v1 FN, 2020, v2 2021, v3 2022-2024                                           
------------------------------------------------------------------------------


----------------------
SHARK INTEGRAL PACKAGE
----------------------

Number of atoms                             ...     12
Number of basis functions                   ...    168
Number of shells                            ...     72
Maximum angular momentum                    ...      2
Integral batch strategy                     ... SHARK/LIBINT Hybrid
RI-J (if used) integral strategy            ... SPLIT-RIJ (Revised 2003 algorithm where possible)
Printlevel                                  ...      1
Contraction scheme used                     ... SEGMENTED contraction
Prescreening option                         ... SCHWARTZ
   Thresh                                   ... 2.500e-11
   Tcut                                     ... 2.500e-12
   Tpresel                                  ... 2.500e-12 
Coulomb Range Separation                    ... NOT USED
Exchange Range Separation                   ... NOT USED
Multipole approximations                    ... NOT USED
Finite Nucleus Model                        ... NOT USED
CABS basis                                  ... NOT available
Auxiliary Coulomb fitting basis             ... AVAILABLE
   # of basis functions in Aux-J            ...    588
   # of shells in Aux-J                     ...    180
   Maximum angular momentum in Aux-J        ...      4
Auxiliary J/K fitting basis                 ... NOT available
Auxiliary Correlation fitting basis         ... NOT available
Auxiliary 'external' fitting basis          ... NOT available

Checking pre-screening integrals            ... done (  0.0 sec) Dimension = 72
   => SHARK Basis and OBASIS are compatible. Storing Pre-screening
Shell pair information
Shell pair cut-off parameter TPreSel        ...   2.5e-12
Total number of shell pairs                 ...      2628
Shell pairs after pre-screening             ...      2596
Total number of primitive shell pairs       ...     10596
Primitive shell pairs kept                  ...      8265
          la=0 lb=0:    634 shell pairs
          la=1 lb=0:    864 shell pairs
          la=1 lb=1:    300 shell pairs
          la=2 lb=0:    432 shell pairs
          la=2 lb=1:    288 shell pairs
          la=2 lb=2:     78 shell pairs

Checking whether 4 symmetric matrices of dimension 168 fit in memory
:Max Core in MB      =   2500.00
 MB in use           =      6.97
 MB left             =   2493.03
 MB needed           =      0.43
 Data fit in memory  = YES
Calculating RI/J V-Matrix + Cholesky decomp.... done (  0.1 sec)
Calculating Nuclear repulsion               ... done (  0.0 sec) ENN=    404.588401414495 Eh

Diagonalization of the overlap matrix:
Smallest eigenvalue                        ... 3.716e-05
Time for diagonalization                   ...    0.005 sec
Threshold for overlap eigenvalues          ... 1.000e-07
Number of eigenvalues below threshold      ... 0
Time for construction of square roots      ...    0.002 sec
Total time needed                          ...    0.010 sec

-------------------
DFT GRID GENERATION
-------------------

General Integration Accuracy     IntAcc      ... 4.388
Radial Grid Type                 RadialGrid  ... OptM3 with GC (2021)
Angular Grid (max. ang.)         AngularGrid ... 4 (Lebedev-302)
Angular grid pruning method      GridPruning ... 4 (adaptive)
Weight generation scheme         WeightScheme... mBecke (2022)
Basis function cutoff            BFCut       ... 1.0000e-11
Integration weight cutoff        WCut        ... 1.0000e-14
Partially contracted basis set               ... off
Rotationally invariant grid construction     ... off
Angular grids for H and He will be reduced by one unit

Total number of grid points                  ...    69471
Total number of batches                      ...     1092
Average number of points per batch           ...       63
Average number of grid points per atom       ...     5789
Grids setup in   0.7 sec
Initializing property integral containers    ... done (  0.0 sec)

SHARK setup successfully completed in   0.9 seconds

Maximum memory used throughout the entire STARTUP-calculation: 19.7 MB


           ************************************************************
           *        Program running with 8 parallel MPI-processes     *
           *              working on a common directory               *
           ************************************************************
-------------------------------------------------------------------------------
                                 ORCA GUESS
                   Start orbitals & Density for SCF / CASSCF
-------------------------------------------------------------------------------

------------
SCF SETTINGS
------------
Hamiltonian:
 Density Functional     Method          .... DFT(GTOs)
 Exchange Functional    Exchange        .... B88
   X-Alpha parameter    XAlpha          ....  0.666667
   Becke's b parameter  XBeta           ....  0.004200
 Correlation Functional Correlation     .... P86
 LDA part of GGA corr.  LDAOpt          .... PW91-LDA
 Gradients option       PostSCFGGA      .... off
   NL short-range parameter             ....  4.400000
 RI-approximation to the Coulomb term is turned on
   Number of AuxJ basis functions       .... 588


General Settings:
 Integral files         IntName         .... icosahedron_nn1.70_perturb2
 Hartree-Fock type      HFTyp           .... RHF
 Total Charge           Charge          ....    0
 Multiplicity           Mult            ....    1
 Number of Electrons    NEL             ....   60
 Basis Dimension        Dim             ....  168
 Nuclear Repulsion      ENuc            ....    404.5884014145 Eh

Convergence Acceleration:
 AO-DIIS                CNVDIIS         .... on
   Start iteration      DIISMaxIt       ....     0
   Startup error        DIISStart       ....  0.200000
   # of expansion vecs  DIISMaxEq       ....     5
   Bias factor          DIISBfac        ....   1.050
   Max. coefficient     DIISMaxC        ....  10.000
 MO-DIIS                CNVKDIIS        .... off
 Trust-Rad. Augm. Hess. CNVTRAH         .... auto
   Auto Start mean grad. ratio tolernc. ....  1.125000
   Auto Start start iteration           ....    50
   Auto Start num. interpolation iter.  ....    10
   Max. Number of Micro iterations      ....    24
   Max. Number of Macro iterations      .... Maxiter - #DIIS iter
   Number of Davidson start vectors     ....     2
   Converg. threshold    (grad. norm)   ....   1.000e-05
   Grad. Scal. Fac. for Micro threshold ....   0.100
   Minimum threshold for Micro iter.    ....   1.000e-02
   NR start threshold (gradient norm)   ....   1.000e-04
   Initial trust radius                 ....   0.400
   Minimum AH scaling param. (alpha)    ....   1.000
   Maximum AH scaling param. (alpha)    .... 1000.000
   Quad. conv. algorithm                .... NR
   White noise on init. David. guess    .... on
   Maximum white noise                  ....   0.010
   Pseudo random numbers                .... off
   Inactive MOs                         .... canonical
   Orbital update algorithm             .... Taylor
   Preconditioner                       .... Diag
   Full preconditioner red. dimension   ....   250
 SOSCF                 CNVSOSCF           .... on
   Start iteration     SOSCFMaxIt         ....   150
   Startup grad/error  SOSCFStart         ....  0.001000
   Hessian update      SOSCFHessUp        .... L-BFGS
   Autom. constraints  SOSCFAutoConstrain .... off
 Level Shifting         CNVShift        .... on
   Level shift para.    LevelShift      ....    0.2500
   Turn off err/grad.   ShiftErr        ....    0.0000
 Zerner damping         CNVZerner       .... off
 Static damping         CNVDamp         .... on
   Fraction old density DampFac         ....    0.8500
   Max. Damping (<1)    DampMax         ....    0.9800
   Min. Damping (>=0)   DampMin         ....    0.0000
   Turn off err/grad.   DampErr         ....    0.0300

SCF Procedure:
 Maximum # iterations   MaxIter         ....   125
 SCF integral mode      SCFMode         .... Direct
   Integral package                     .... SHARK and LIBINT hybrid scheme
 Reset frequency        DirectResetFreq ....    20
 Integral Threshold     Thresh          ....  2.500e-11 Eh
 Primitive CutOff       TCut            ....  2.500e-12 Eh

Convergence Tolerance:
 Convergence Check Mode ConvCheckMode   .... Total+1el-Energy
 Convergence forced     ConvForced      .... 0
 Energy Change          TolE            ....  1.000e-08 Eh
 1-El. energy change                    ....  1.000e-05 Eh
 Orbital Gradient       TolG            ....  1.000e-05
 Orbital Rotation angle TolX            ....  1.000e-05
 DIIS Error             TolErr          ....  5.000e-07

------------------------------
INITIAL GUESS: MODEL POTENTIAL
------------------------------
Loading Hartree-Fock densities                     ... done
Calculating cut-offs                               ... done
Initializing the effective Hamiltonian             ... done
Setting up the integral package (SHARK)            ... done
Starting the Coulomb interaction                   ... done (   0.1 sec)
Making the grid                                    ... done (   0.2 sec)
Mapping shells                                     ... done
Starting the XC term evaluation                    ... done (   0.1 sec)
  promolecular density results
     # of electrons  =     60.000894268
     EX              =    -46.368122789
     EC              =     -2.087539120
     EX+EC           =    -48.455661909
Transforming the Hamiltonian                       ... done (   0.0 sec)
Diagonalizing the Hamiltonian                      ... done (   0.0 sec)
Back transforming the eigenvectors                 ... done (   0.0 sec)
Now organizing SCF variables                       ... done
                      ------------------
                      INITIAL GUESS DONE (   0.4 sec)
                      ------------------
             **** ENERGY FILE WAS UPDATED (icosahedron_nn1.70_perturb2.en.tmp) ****
Finished Guess after   0.9 sec
Maximum memory used throughout the entire GUESS-calculation: 9.8 MB


           ************************************************************
           *        Program running with 8 parallel MPI-processes     *
           *              working on a common directory               *
           ************************************************************

-------------------------------------------------------------------------------------------
                                      ORCA LEAN-SCF
                              memory conserving SCF solver
-------------------------------------------------------------------------------------------

----------------------------------------D-I-I-S--------------------------------------------
Iteration    Energy (Eh)           Delta-E    RMSDP     MaxDP     DIISErr   Damp  Time(sec)
-------------------------------------------------------------------------------------------
               ***  Starting incremental Fock matrix formation  ***
    1    -296.3658259519953049     0.00e+00  4.30e-02  8.59e-01  2.39e-01  0.850   1.1
Warning: op=0 Small HOMO/LUMO gap (  -0.027) - skipping pre-diagonalization
         Will do a full diagonalization
    2    -296.7248572222966345    -3.59e-01  3.94e-02  7.20e-01  1.60e-01  0.850   0.9
                               ***Turning on AO-DIIS***
    3    -296.8826634891966592    -1.58e-01  3.42e-02  9.62e-01  9.05e-02  0.850   0.6
    4    -296.9686582042212990    -8.60e-02  2.66e-02  7.58e-01  6.04e-02  0.850   0.5
    5    -297.0314171310524785    -6.28e-02  2.04e-02  5.60e-01  4.54e-02  0.850   0.4
    6    -297.0806556008079156    -4.92e-02  1.63e-02  4.32e-01  3.64e-02  0.850   0.4
    7    -297.1212988645199289    -4.06e-02  1.38e-02  3.66e-01  3.00e-02  0.850   0.4
    8    -297.1556296129010093    -3.43e-02  7.77e-02  2.06e+00  2.44e-02  0.000   0.6
    9    -297.3423936016205857    -1.87e-01  8.61e-03  1.44e-01  2.40e-02  0.000   0.4
   10    -297.3448611446056589    -2.47e-03  3.34e-03  3.75e-02  1.32e-02  0.000   0.4
   11    -297.3457153584984667    -8.54e-04  1.74e-03  2.08e-02  7.49e-03  0.000   0.4
   12    -297.3460433175008006    -3.28e-04  1.16e-03  1.32e-02  4.55e-03  0.000   0.4
   13    -297.3461771485569329    -1.34e-04  9.30e-04  1.28e-02  1.64e-03  0.000   0.3
                              *** Initializing SOSCF ***
---------------------------------------S-O-S-C-F--------------------------------------
Iteration    Energy (Eh)           Delta-E    RMSDP     MaxDP     MaxGrad    Time(sec)
--------------------------------------------------------------------------------------
   14    -297.3462115754842330    -3.44e-05  6.44e-04  7.08e-03  3.77e-04     0.5
               *** Restarting incremental Fock matrix formation ***
   15    -297.3462266050151470    -1.50e-05  1.35e-03  1.35e-02  5.97e-04     0.4
   16    -297.3462481183909745    -2.15e-05  6.72e-03  6.35e-02  4.88e-04     0.3
   17    -297.3462448039729793     3.31e-06  1.56e-03  2.05e-02  9.35e-04     0.4
   18    -297.3462705293141539    -2.57e-05  2.15e-03  2.05e-02  6.42e-04     0.3
   19    -297.3462365426030942     3.40e-05  1.47e-03  1.29e-02  1.17e-03     0.6
   20    -297.3462803183824121    -4.38e-05  1.47e-03  1.18e-02  2.32e-04     0.8
   21    -297.3462752712063661     5.05e-06  7.33e-04  7.08e-03  4.43e-04     2.7
   22    -297.3462842826141355    -9.01e-06  2.56e-04  3.87e-03  6.90e-05     1.5
   23    -297.3462835316057067     7.51e-07  1.87e-04  1.43e-03  1.59e-04     1.5
   24    -297.3462848421939384    -1.31e-06  2.51e-04  2.30e-03  3.05e-05     0.6
   25    -297.3462849329433197    -9.07e-08  1.56e-04  1.44e-03  3.55e-05     0.4
   26    -297.3462850809700626    -1.48e-07  1.21e-04  1.08e-03  1.26e-05     0.4
   27    -297.3462850964479571    -1.55e-08  3.30e-05  3.18e-04  1.26e-05     0.3
   28    -297.3462851077916298    -1.13e-08  2.12e-05  2.98e-04  3.27e-06     1.0
   29    -297.3462851091654215    -1.37e-09  1.54e-05  3.81e-04  1.79e-06     2.2
                 **** Energy Check signals convergence ****

               *****************************************************
               *                     SUCCESS                       *
               *           SCF CONVERGED AFTER  29 CYCLES          *
               *****************************************************

             **** ENERGY FILE WAS UPDATED (icosahedron_nn1.70_perturb2.en.tmp) ****

----------------
TOTAL SCF ENERGY
----------------

Total Energy       :       -297.34628510879207 Eh           -8091.20377 eV

Components:
Nuclear Repulsion  :        404.58840141449485 Eh           11009.41011 eV
Electronic Energy  :       -701.93468652328693 Eh          -19100.61388 eV
One Electron Energy:      -1195.55667091632790 Eh          -32532.75095 eV
Two Electron Energy:        493.62198439304098 Eh           13432.13707 eV

Virial components:
Potential Energy   :       -592.16387133304784 Eh          -16113.59814 eV
Kinetic Energy     :        294.81758622425582 Eh            8022.39437 eV
Virial Ratio       :          2.00857716433040

DFT components:
N(Alpha)           :       29.999898117084 electrons
N(Beta)            :       29.999898117084 electrons
N(Total)           :       59.999796234169 electrons
E(X)               :      -46.812205361060 Eh       
E(C)               :       -2.120274591670 Eh       
E(XC)              :      -48.932479952730 Eh       

---------------
SCF CONVERGENCE
---------------

  Last Energy change         ...    1.3738e-09  Tolerance :   1.0000e-08
  Last MAX-Density change    ...    3.8052e-04  Tolerance :   1.0000e-07
  Last RMS-Density change    ...    1.5404e-05  Tolerance :   5.0000e-09
  Last DIIS Error            ...    3.7698e-04  Tolerance :   5.0000e-07
  Last Orbital Gradient      ...    1.7939e-06  Tolerance :   1.0000e-05
  Last Orbital Rotation      ...    1.5789e-05  Tolerance :   1.0000e-05


----------------
ORBITAL ENERGIES
----------------

  NO   OCC          E(Eh)            E(eV) 
   0   2.0000      -6.607495      -179.7991 
   1   2.0000      -6.605686      -179.7499 
   2   2.0000      -6.594216      -179.4377 
   3   2.0000      -6.593547      -179.4195 
   4   2.0000      -6.593074      -179.4067 
   5   2.0000      -6.590989      -179.3499 
   6   2.0000      -6.588436      -179.2805 
   7   2.0000      -6.574525      -178.9019 
   8   2.0000      -6.572095      -178.8358 
   9   2.0000      -6.570848      -178.8019 
  10   2.0000      -6.570742      -178.7990 
  11   2.0000      -6.548336      -178.1893 
  12   2.0000      -0.810144       -22.0452 
  13   2.0000      -0.675965       -18.3940 
  14   2.0000      -0.631604       -17.1868 
  15   2.0000      -0.596654       -16.2358 
  16   2.0000      -0.502750       -13.6805 
  17   2.0000      -0.470374       -12.7995 
  18   2.0000      -0.457868       -12.4592 
  19   2.0000      -0.433676       -11.8009 
  20   2.0000      -0.429930       -11.6990 
  21   2.0000      -0.371009       -10.0957 
  22   2.0000      -0.356696        -9.7062 
  23   2.0000      -0.333950        -9.0872 
  24   2.0000      -0.308660        -8.3991 
  25   2.0000      -0.299513        -8.1502 
  26   2.0000      -0.263805        -7.1785 
  27   2.0000      -0.241867        -6.5815 
  28   2.0000      -0.209060        -5.6888 
  29   2.0000      -0.168711        -4.5909 
  30   0.0000      -0.159592        -4.3427 
  31   0.0000      -0.153254        -4.1703 
  32   0.0000      -0.146683        -3.9915 
  33   0.0000      -0.121014        -3.2930 
  34   0.0000      -0.109771        -2.9870 
  35   0.0000      -0.102711        -2.7949 
  36   0.0000      -0.073449        -1.9987 
  37   0.0000      -0.056026        -1.5245 
  38   0.0000      -0.035287        -0.9602 
  39   0.0000       0.004324         0.1177 
  40   0.0000       0.008338         0.2269 
*Only the first 10 virtual orbitals were printed.

                    ********************************
                    * MULLIKEN POPULATION ANALYSIS *
                    ********************************

-----------------------
MULLIKEN ATOMIC CHARGES
-----------------------
   0 B :   -0.056595
   1 B :    0.036213
   2 B :    0.074502
   3 B :   -0.350550
   4 B :   -0.292048
   5 B :    0.088475
   6 B :    0.128708
   7 B :   -0.082376
   8 B :   -0.229979
   9 B :    0.800136
  10 B :   -0.139179
  11 B :    0.022692
Sum of atomic charges:   -0.0000000

--------------------------------
MULLIKEN REDUCED ORBITAL CHARGES
--------------------------------
  0 B s       :     2.974507  s :     2.974507
      pz      :     0.637723  p :     2.021221
      px      :     0.624821
      py      :     0.758678
      dz2     :     0.013098  d :     0.060867
      dxz     :     0.011361
      dyz     :     0.013078
      dx2y2   :     0.012076
      dxy     :     0.011253

  1 B s       :     2.807739  s :     2.807739
      pz      :     0.826508  p :     2.085721
      px      :     0.677526
      py      :     0.581687
      dz2     :     0.012574  d :     0.070326
      dxz     :     0.012585
      dyz     :     0.016926
      dx2y2   :     0.015445
      dxy     :     0.012796

  2 B s       :     2.596195  s :     2.596195
      pz      :     0.782951  p :     2.255390
      px      :     0.626554
      py      :     0.845884
      dz2     :     0.016228  d :     0.073913
      dxz     :     0.016088
      dyz     :     0.012316
      dx2y2   :     0.014102
      dxy     :     0.015179

  3 B s       :     2.802024  s :     2.802024
      pz      :     0.709724  p :     2.463611
      px      :     0.816833
      py      :     0.937054
      dz2     :     0.016676  d :     0.084914
      dxz     :     0.016239
      dyz     :     0.018156
      dx2y2   :     0.018922
      dxy     :     0.014921

  4 B s       :     2.884805  s :     2.884805
      pz      :     0.795242  p :     2.324470
      px      :     0.835318
      py      :     0.693910
      dz2     :     0.013745  d :     0.082773
      dxz     :     0.015319
      dyz     :     0.021272
      dx2y2   :     0.016253
      dxy     :     0.016184

  5 B s       :     2.778423  s :     2.778423
      pz      :     0.722051  p :     2.061894
      px      :     0.587202
      py      :     0.752642
      dz2     :     0.015292  d :     0.071208
      dxz     :     0.014839
      dyz     :     0.010896
      dx2y2   :     0.015407
      dxy     :     0.014774

  6 B s       :     2.333947  s :     2.333947
      pz      :     0.760703  p :     2.452642
      px      :     0.945358
      py      :     0.746581
      dz2     :     0.017041  d :     0.084703
      dxz     :     0.017979
      dyz     :     0.014384
      dx2y2   :     0.017278
      dxy     :     0.018020

  7 B s       :     2.880905  s :     2.880905
      pz      :     0.770995  p :     2.137853
      px      :     0.690839
      py      :     0.676019
      dz2     :     0.010912  d :     0.063618
      dxz     :     0.010974
      dyz     :     0.016042
      dx2y2   :     0.013215
      dxy     :     0.012475

  8 B s       :     3.205178  s :     3.205178
      pz      :     0.566266  p :     1.943048
      px      :     0.655341
      py      :     0.721442
      dz2     :     0.016614  d :     0.081753
      dxz     :     0.019051
      dyz     :     0.011429
      dx2y2   :     0.018442
      dxy     :     0.016217

  9 B s       :     1.492380  s :     1.492380
      pz      :     0.748166  p :     2.593114
      px      :     0.914714
      py      :     0.930234
      dz2     :     0.023149  d :     0.114370
      dxz     :     0.023617
      dyz     :     0.019617
      dx2y2   :     0.025108
      dxy     :     0.022879

 10 B s       :     3.017805  s :     3.017805
      pz      :     0.660756  p :     2.059238
      px      :     0.675014
      py      :     0.723468
      dz2     :     0.009413  d :     0.062137
      dxz     :     0.009232
      dyz     :     0.013986
      dx2y2   :     0.015258
      dxy     :     0.014248

 11 B s       :     2.850424  s :     2.850424
      pz      :     0.676079  p :     2.062623
      px      :     0.566004
      py      :     0.820540
      dz2     :     0.012968  d :     0.064260
      dxz     :     0.012597
      dyz     :     0.011747
      dx2y2   :     0.012438
      dxy     :     0.014510



                     *******************************
                     * LOEWDIN POPULATION ANALYSIS *
                     *******************************

----------------------
LOEWDIN ATOMIC CHARGES
----------------------
   0 B :    0.015919
   1 B :    0.089216
   2 B :    0.028159
   3 B :   -0.039631
   4 B :   -0.005650
   5 B :   -0.070045
   6 B :    0.007010
   7 B :    0.061981
   8 B :   -0.021813
   9 B :   -0.151244
  10 B :    0.021559
  11 B :    0.064537

-------------------------------
LOEWDIN REDUCED ORBITAL CHARGES
-------------------------------
  0 B s       :     2.708118  s :     2.708118
      pz      :     0.679214  p :     2.124091
      px      :     0.640480
      py      :     0.804396
      dz2     :     0.029958  d :     0.151872
      dxz     :     0.032240
      dyz     :     0.023808
      dx2y2   :     0.034286
      dxy     :     0.031580

  1 B s       :     2.644340  s :     2.644340
      pz      :     0.817253  p :     2.093268
      px      :     0.643769
      py      :     0.632246
      dz2     :     0.028911  d :     0.173176
      dxz     :     0.036272
      dyz     :     0.045102
      dx2y2   :     0.036891
      dxy     :     0.025999

  2 B s       :     2.605506  s :     2.605506
      pz      :     0.676288  p :     2.179816
      px      :     0.632990
      py      :     0.870539
      dz2     :     0.043668  d :     0.186519
      dxz     :     0.033517
      dyz     :     0.035957
      dx2y2   :     0.034338
      dxy     :     0.039038

  3 B s       :     2.530994  s :     2.530994
      pz      :     0.694051  p :     2.282930
      px      :     0.729458
      py      :     0.859422
      dz2     :     0.035314  d :     0.225706
      dxz     :     0.040359
      dyz     :     0.039984
      dx2y2   :     0.054433
      dxy     :     0.055616

  4 B s       :     2.539142  s :     2.539142
      pz      :     0.800137  p :     2.251304
      px      :     0.768944
      py      :     0.682223
      dz2     :     0.040640  d :     0.215204
      dxz     :     0.047223
      dyz     :     0.055904
      dx2y2   :     0.039047
      dxy     :     0.032390

  5 B s       :     2.680569  s :     2.680569
      pz      :     0.723740  p :     2.210807
      px      :     0.729369
      py      :     0.757697
      dz2     :     0.040799  d :     0.178670
      dxz     :     0.029428
      dyz     :     0.031432
      dx2y2   :     0.038671
      dxy     :     0.038340

  6 B s       :     2.560801  s :     2.560801
      pz      :     0.668190  p :     2.214932
      px      :     0.827588
      py      :     0.719154
      dz2     :     0.038332  d :     0.217258
      dxz     :     0.050990
      dyz     :     0.026460
      dx2y2   :     0.053447
      dxy     :     0.048029

  7 B s       :     2.653529  s :     2.653529
      pz      :     0.777033  p :     2.132156
      px      :     0.677847
      py      :     0.677276
      dz2     :     0.024566  d :     0.152333
      dxz     :     0.031164
      dyz     :     0.041993
      dx2y2   :     0.030009
      dxy     :     0.024601

  8 B s       :     2.651733  s :     2.651733
      pz      :     0.602134  p :     2.156603
      px      :     0.805278
      py      :     0.749191
      dz2     :     0.042474  d :     0.213476
      dxz     :     0.041651
      dyz     :     0.032554
      dx2y2   :     0.051911
      dxy     :     0.044887

  9 B s       :     2.493501  s :     2.493501
      pz      :     0.680019  p :     2.334960
      px      :     0.821640
      py      :     0.833301
      dz2     :     0.059106  d :     0.322783
      dxz     :     0.056652
      dyz     :     0.051471
      dx2y2   :     0.080086
      dxy     :     0.075468

 10 B s       :     2.654575  s :     2.654575
      pz      :     0.690167  p :     2.169164
      px      :     0.686046
      py      :     0.792952
      dz2     :     0.023148  d :     0.154701
      dxz     :     0.025114
      dyz     :     0.039088
      dx2y2   :     0.037633
      dxy     :     0.029717

 11 B s       :     2.636794  s :     2.636794
      pz      :     0.683050  p :     2.137092
      px      :     0.614780
      py      :     0.839262
      dz2     :     0.034435  d :     0.161577
      dxz     :     0.023600
      dyz     :     0.033189
      dx2y2   :     0.032876
      dxy     :     0.037478



                      *****************************
                      * MAYER POPULATION ANALYSIS *
                      *****************************

  NA   - Mulliken gross atomic population
  ZA   - Total nuclear charge
  QA   - Mulliken gross atomic charge
  VA   - Mayer's total valence
  BVA  - Mayer's bonded valence
  FA   - Mayer's free valence

  ATOM       NA         ZA         QA         VA         BVA        FA
  0 B      5.0566     5.0000    -0.0566     3.9032     3.9032    -0.0000
  1 B      4.9638     5.0000     0.0362     3.8753     3.8753     0.0000
  2 B      4.9255     5.0000     0.0745     4.0938     4.0938    -0.0000
  3 B      5.3505     5.0000    -0.3505     5.0494     5.0494     0.0000
  4 B      5.2920     5.0000    -0.2920     4.9029     4.9029     0.0000
  5 B      4.9115     5.0000     0.0885     3.3397     3.3397    -0.0000
  6 B      4.8713     5.0000     0.1287     3.9662     3.9662    -0.0000
  7 B      5.0824     5.0000    -0.0824     3.9758     3.9758     0.0000
  8 B      5.2300     5.0000    -0.2300     3.5978     3.5978     0.0000
  9 B      4.1999     5.0000     0.8001     1.9034     1.9034    -0.0000
 10 B      5.1392     5.0000    -0.1392     4.1587     4.1587     0.0000
 11 B      4.9773     5.0000     0.0227     4.0641     4.0641     0.0000

  Mayer bond orders larger than 0.100000
B(  0-B ,  1-B ) :   0.3419 B(  0-B ,  2-B ) :   0.4600 B(  0-B ,  4-B ) :   0.2685 
B(  0-B ,  5-B ) :   0.3129 B(  0-B ,  6-B ) :   0.8214 B(  0-B ,  7-B ) :   1.0748 
B(  0-B ,  9-B ) :   0.1039 B(  0-B , 10-B ) :   0.2990 B(  0-B , 11-B ) :   0.1066 
B(  1-B ,  2-B ) :   0.9121 B(  1-B ,  3-B ) :   1.1265 B(  1-B ,  5-B ) :   0.1167 
B(  1-B ,  7-B ) :   0.4568 B(  1-B ,  8-B ) :   0.4590 B(  1-B , 10-B ) :   0.1962 
B(  1-B , 11-B ) :   0.1722 B(  2-B ,  4-B ) :   0.9308 B(  2-B ,  5-B ) :   0.2677 
B(  2-B ,  6-B ) :   0.6070 B(  2-B ,  8-B ) :   0.3341 B(  2-B , 10-B ) :   0.2079 
B(  2-B , 11-B ) :   0.1524 B(  3-B ,  4-B ) :   1.0263 B(  3-B ,  5-B ) :   0.1033 
B(  3-B ,  7-B ) :   0.4651 B(  3-B ,  8-B ) :   0.7281 B(  3-B ,  9-B ) :   0.5559 
B(  3-B , 10-B ) :   0.2810 B(  3-B , 11-B ) :   0.5304 B(  4-B ,  5-B ) :   0.1309 
B(  4-B ,  6-B ) :   0.4760 B(  4-B ,  7-B ) :   0.1475 B(  4-B ,  8-B ) :   0.7020 
B(  4-B , 10-B ) :   0.8864 B(  4-B , 11-B ) :   0.2318 B(  5-B ,  6-B ) :   0.5731 
B(  5-B ,  7-B ) :   0.3874 B(  5-B ,  8-B ) :   0.3158 B(  5-B ,  9-B ) :   0.2468 
B(  5-B , 10-B ) :   0.3555 B(  5-B , 11-B ) :   0.5296 B(  6-B ,  7-B ) :   0.1948 
B(  6-B ,  8-B ) :   0.1211 B(  6-B ,  9-B ) :   0.2680 B(  6-B , 10-B ) :   0.6032 
B(  6-B , 11-B ) :   0.1345 B(  7-B ,  9-B ) :   0.1667 B(  7-B , 10-B ) :   0.1205 
B(  7-B , 11-B ) :   0.8219 B(  8-B ,  9-B ) :   0.2410 B(  8-B , 10-B ) :   0.3114 
B(  8-B , 11-B ) :   0.2242 B(  9-B , 11-B ) :   0.2116 B( 10-B , 11-B ) :   0.9491 


-------
TIMINGS
-------

Total SCF time: 0 days 0 hours 0 min 23 sec 

Total time                  ....      23.100 sec
Sum of individual times     ....      21.759 sec  ( 94.2%)

SCF preparation             ....       0.902 sec  (  3.9%)
Fock matrix formation       ....      15.893 sec  ( 68.8%)
  Startup                   ....       0.028 sec  (  0.2% of F)
  Split-RI-J                ....       3.880 sec  ( 24.4% of F)
  XC integration            ....      10.455 sec  ( 65.8% of F)
    XC Preparation          ....       0.000 sec  (  0.0% of XC)
    Basis function eval.    ....       1.598 sec  ( 15.3% of XC)
    Density eval.           ....       1.321 sec  ( 12.6% of XC)
    XC-Functional eval.     ....       0.190 sec  (  1.8% of XC)
    XC-Potential eval.      ....       1.714 sec  ( 16.4% of XC)
Diagonalization             ....       0.000 sec  (  0.0%)
Density matrix formation    ....       0.699 sec  (  3.0%)
Total Energy calculation    ....       0.660 sec  (  2.9%)
Population analysis         ....       0.067 sec  (  0.3%)
Orbital Transformation      ....       0.149 sec  (  0.6%)
Orbital Orthonormalization  ....       0.000 sec  (  0.0%)
DIIS solution               ....       0.671 sec  (  2.9%)
SOSCF solution              ....       2.718 sec  ( 11.8%)
Finished LeanSCF after  23.2 sec

Maximum memory used throughout the entire LEANSCF-calculation: 10.3 MB


-------------------------------------------------------------------------------
[...]
      dyz     :     0.014799
      dx2y2   :     0.014997
      dxy     :     0.013304

 10 B s       :     2.513673  s :     2.513673
      pz      :     0.843340  p :     2.380168
      px      :     0.799260
      py      :     0.737568
      dz2     :     0.013889  d :     0.074146
      dxz     :     0.013898
      dyz     :     0.015468
      dx2y2   :     0.016300
      dxy     :     0.014592

 11 B s       :     2.531800  s :     2.531800
      pz      :     0.800236  p :     2.368441
      px      :     0.729113
      py      :     0.839092
      dz2     :     0.015718  d :     0.073750
      dxz     :     0.014858
      dyz     :     0.013514
      dx2y2   :     0.014181
      dxy     :     0.015479



                     *******************************
                     * LOEWDIN POPULATION ANALYSIS *
                     *******************************

----------------------
LOEWDIN ATOMIC CHARGES
----------------------
   0 B :    0.037591
   1 B :    0.038353
   2 B :    0.037087
   3 B :   -0.041766
   4 B :   -0.033939
   5 B :   -0.037169
   6 B :   -0.041719
   7 B :   -0.033935
   8 B :   -0.037374
   9 B :    0.037700
  10 B :    0.038331
  11 B :    0.036840

-------------------------------
LOEWDIN REDUCED ORBITAL CHARGES
-------------------------------
  0 B s       :     2.572014  s :     2.572014
      pz      :     0.677807  p :     2.204207
      px      :     0.787039
      py      :     0.739361
      dz2     :     0.035413  d :     0.186188
      dxz     :     0.041605
      dyz     :     0.030280
      dx2y2   :     0.041107
      dxy     :     0.037783

  1 B s       :     2.569842  s :     2.569842
      pz      :     0.787166  p :     2.204833
      px      :     0.736775
      py      :     0.680892
      dz2     :     0.035218  d :     0.186972
      dxz     :     0.039465
      dyz     :     0.041963
      dx2y2   :     0.041152
      dxy     :     0.029174

  2 B s       :     2.573293  s :     2.573293
      pz      :     0.740969  p :     2.203774
      px      :     0.676901
      py      :     0.785904
      dz2     :     0.042737  d :     0.185845
      dxz     :     0.030597
      dyz     :     0.038536
      dx2y2   :     0.032153
      dxy     :     0.041824

  3 B s       :     2.670674  s :     2.670674
      pz      :     0.728174  p :     2.198790
      px      :     0.735685
      py      :     0.734931
      dz2     :     0.037857  d :     0.172303
      dxz     :     0.040854
      dyz     :     0.029623
      dx2y2   :     0.030058
      dxy     :     0.033910

  4 B s       :     2.661021  s :     2.661021
      pz      :     0.740379  p :     2.199421
      px      :     0.736830
      py      :     0.722213
      dz2     :     0.027771  d :     0.173496
      dxz     :     0.034171
      dyz     :     0.041376
      dx2y2   :     0.039760
      dxy     :     0.030419

  5 B s       :     2.665267  s :     2.665267
      pz      :     0.734520  p :     2.198938
      px      :     0.725828
      py      :     0.738589
      dz2     :     0.037277  d :     0.172965
      dxz     :     0.029185
      dyz     :     0.034785
      dx2y2   :     0.031107
      dxy     :     0.040611

  6 B s       :     2.671197  s :     2.671197
      pz      :     0.727951  p :     2.198405
      px      :     0.736665
      py      :     0.733788
      dz2     :     0.037805  d :     0.172117
      dxz     :     0.040841
      dyz     :     0.029576
      dx2y2   :     0.029972
      dxy     :     0.033923

  7 B s       :     2.661134  s :     2.661134
      pz      :     0.740153  p :     2.199244
      px      :     0.737344
      py      :     0.721748
      dz2     :     0.027774  d :     0.173557
      dxz     :     0.034259
      dyz     :     0.041333
      dx2y2   :     0.039766
      dxy     :     0.030426

  8 B s       :     2.665188  s :     2.665188
      pz      :     0.734083  p :     2.199234
      px      :     0.725891
      py      :     0.739260
      dz2     :     0.037220  d :     0.172952
      dxz     :     0.029220
      dyz     :     0.034724
      dx2y2   :     0.031110
      dxy     :     0.040677

  9 B s       :     2.571560  s :     2.571560
      pz      :     0.677802  p :     2.204358
      px      :     0.786359
      py      :     0.740198
      dz2     :     0.035422  d :     0.186382
      dxz     :     0.041628
      dyz     :     0.030313
      dx2y2   :     0.041207
      dxy     :     0.037811

 10 B s       :     2.569940  s :     2.569940
      pz      :     0.787028  p :     2.204837
      px      :     0.736795
      py      :     0.681013
      dz2     :     0.035231  d :     0.186892
      dxz     :     0.039371
      dyz     :     0.041930
      dx2y2   :     0.041152
      dxy     :     0.029208

 11 B s       :     2.573366  s :     2.573366
      pz      :     0.740219  p :     2.203877
      px      :     0.677104
      py      :     0.786553
      dz2     :     0.042727  d :     0.185917
      dxz     :     0.030658
      dyz     :     0.038508
      dx2y2   :     0.032141
      dxy     :     0.041884



                      *****************************
                      * MAYER POPULATION ANALYSIS *
                      *****************************

  NA   - Mulliken gross atomic population
  ZA   - Total nuclear charge
  QA   - Mulliken gross atomic charge
  VA   - Mayer's total valence
  BVA  - Mayer's bonded valence
  FA   - Mayer's free valence

  ATOM       NA         ZA         QA         VA         BVA        FA
  0 B      4.9725     5.0000     0.0275     4.3358     4.3358     0.0000
  1 B      4.9676     5.0000     0.0324     4.3385     4.3385    -0.0000
  2 B      4.9739     5.0000     0.0261     4.3299     4.3299     0.0000
  3 B      5.0335     5.0000    -0.0335     3.7380     3.7380    -0.0000
  4 B      5.0245     5.0000    -0.0245     3.7948     3.7948     0.0000
  5 B      5.0281     5.0000    -0.0281     3.7707     3.7707     0.0000
  6 B      5.0340     5.0000    -0.0340     3.7366     3.7366    -0.0000
  7 B      5.0240     5.0000    -0.0240     3.7945     3.7945     0.0000
  8 B      5.0286     5.0000    -0.0286     3.7706     3.7706     0.0000
  9 B      4.9714     5.0000     0.0286     4.3350     4.3350     0.0000
 10 B      4.9680     5.0000     0.0320     4.3388     4.3388    -0.0000
 11 B      4.9740     5.0000     0.0260     4.3311     4.3311     0.0000

  Mayer bond orders larger than 0.100000
B(  0-B ,  1-B ) :   0.7017 B(  0-B ,  2-B ) :   0.7125 B(  0-B ,  3-B ) :   0.1621 
B(  0-B ,  4-B ) :   0.1593 B(  0-B ,  5-B ) :   0.8442 B(  0-B ,  6-B ) :   0.5460 
B(  0-B ,  7-B ) :   0.5522 B(  0-B ,  8-B ) :   0.1772 B(  0-B ,  9-B ) :   0.1889 
B(  0-B , 10-B ) :   0.1449 B(  0-B , 11-B ) :   0.1467 B(  1-B ,  2-B ) :   0.7045 
B(  1-B ,  3-B ) :   0.8182 B(  1-B ,  4-B ) :   0.1578 B(  1-B ,  5-B ) :   0.1591 
B(  1-B ,  6-B ) :   0.1722 B(  1-B ,  7-B ) :   0.5726 B(  1-B ,  8-B ) :   0.5707 
B(  1-B ,  9-B ) :   0.1454 B(  1-B , 10-B ) :   0.1901 B(  1-B , 11-B ) :   0.1460 
B(  2-B ,  3-B ) :   0.1631 B(  2-B ,  4-B ) :   0.8569 B(  2-B ,  5-B ) :   0.1611 
B(  2-B ,  6-B ) :   0.5353 B(  2-B ,  7-B ) :   0.1795 B(  2-B ,  8-B ) :   0.5366 
B(  2-B ,  9-B ) :   0.1467 B(  2-B , 10-B ) :   0.1455 B(  2-B , 11-B ) :   0.1882 
B(  3-B ,  4-B ) :   0.2618 B(  3-B ,  5-B ) :   0.2645 B(  3-B ,  6-B ) :   0.3288 
B(  3-B ,  7-B ) :   0.2453 B(  3-B ,  8-B ) :   0.2398 B(  3-B ,  9-B ) :   0.5502 
B(  3-B , 10-B ) :   0.1729 B(  3-B , 11-B ) :   0.5314 B(  4-B ,  5-B ) :   0.2562 
B(  4-B ,  6-B ) :   0.2447 B(  4-B ,  7-B ) :   0.2994 B(  4-B ,  8-B ) :   0.2520 
B(  4-B ,  9-B ) :   0.5542 B(  4-B , 10-B ) :   0.5717 B(  4-B , 11-B ) :   0.1808 
B(  5-B ,  6-B ) :   0.2404 B(  5-B ,  7-B ) :   0.2505 B(  5-B ,  8-B ) :   0.3115 
B(  5-B ,  9-B ) :   0.1765 B(  5-B , 10-B ) :   0.5701 B(  5-B , 11-B ) :   0.5366 
B(  6-B ,  7-B ) :   0.2604 B(  6-B ,  8-B ) :   0.2658 B(  6-B ,  9-B ) :   0.1617 
B(  6-B , 10-B ) :   0.8184 B(  6-B , 11-B ) :   0.1631 B(  7-B ,  8-B ) :   0.2576 
B(  7-B ,  9-B ) :   0.1593 B(  7-B , 10-B ) :   0.1584 B(  7-B , 11-B ) :   0.8595 
B(  8-B ,  9-B ) :   0.8388 B(  8-B , 10-B ) :   0.1592 B(  8-B , 11-B ) :   0.1614 
B(  9-B , 10-B ) :   0.7019 B(  9-B , 11-B ) :   0.7116 B( 10-B , 11-B ) :   0.7058 


-------
TIMINGS
-------

Total SCF time: 0 days 0 hours 0 min 6 sec 

Total time                  ....       6.194 sec
Sum of individual times     ....       5.632 sec  ( 90.9%)

SCF preparation             ....       0.595 sec  (  9.6%)
Fock matrix formation       ....       4.409 sec  ( 71.2%)
  Startup                   ....       0.009 sec  (  0.2% of F)
  Split-RI-J                ....       1.392 sec  ( 31.6% of F)
  XC integration            ....       3.232 sec  ( 73.3% of F)
    XC Preparation          ....       0.000 sec  (  0.0% of XC)
    Basis function eval.    ....       0.653 sec  ( 20.2% of XC)
    Density eval.           ....       0.522 sec  ( 16.1% of XC)
    XC-Functional eval.     ....       0.076 sec  (  2.4% of XC)
    XC-Potential eval.      ....       0.646 sec  ( 20.0% of XC)
Diagonalization             ....       0.000 sec  (  0.0%)
Density matrix formation    ....       0.096 sec  (  1.6%)
Total Energy calculation    ....       0.030 sec  (  0.5%)
Population analysis         ....       0.162 sec  (  2.6%)
Orbital Transformation      ....       0.018 sec  (  0.3%)
Orbital Orthonormalization  ....       0.000 sec  (  0.0%)
DIIS solution               ....       0.021 sec  (  0.3%)
SOSCF solution              ....       0.302 sec  (  4.9%)
Finished LeanSCF after   6.3 sec

Maximum memory used throughout the entire LEANSCF-calculation: 11.6 MB


-------------------------------------------------------------------------------
                          DFT DISPERSION CORRECTION                            
                                                                               
                              DFTD3 V3.1  Rev 1                                
                          USING Becke-Johnson damping                          
-------------------------------------------------------------------------------
The BP86 functional is recognized
Active option DFTDOPT                   ...         4   

molecular C6(AA) [au] = 4036.536166 


            DFT-D V3
 parameters
 s6 scaling factor         :     1.0000 
 a1 scaling factor         :     0.3946 
 s8 scaling factor         :     3.2822 
 a2 scaling factor         :     4.8516 
 ad hoc parameters k1-k3   :    16.0000     1.3333    -4.0000 

 Edisp/kcal,au: -23.925252872455  -0.038127313306 
 E6   /kcal   :  -6.812725945 
 E8   /kcal   : -17.112526928 
 % E8         :  71.524957412 

-------------------------   ----------------
Dispersion correction           -0.038127313
-------------------------   ----------------


-------------------------   --------------------
FINAL SINGLE POINT ENERGY      -297.634944344526
-------------------------   --------------------

                                *** OPTIMIZATION RUN DONE ***



           ************************************************************
           *        Program running with 8 parallel MPI-processes     *
           *              working on a common directory               *
           ************************************************************

------------------------------------------------------------------------------
                              ORCA PROPERTY CALCULATIONS
------------------------------------------------------------------------------

GBWName                                 ... icosahedron_nn1.70_perturb2.gbw
Number of atoms                         ...     12
Number of basis functions               ...    168
Max core memory                         ...   2500 MB

Electric properties:
Dipole moment                           ... YES
Quadrupole moment                       ...  NO
Static polarizability (Dipole/Dipole)   ...  NO
Static polarizability (Dipole/Quad.)    ...  NO
Static polarizability (Quad./Quad.)     ...  NO
Static polarizability (Velocity)        ...  NO
Static hyperpolarizability              ...  NO

Atomic electric properties:
Dipole moment                           ...  NO
Quadrupole moment                       ...  NO
Static polarizability                   ...  NO

Choice of electric origin               ... Center of mass
Position of electric origin             ...    -0.102284     0.038098     0.087772

General magnetic properties:
Magnetizability                         ...  NO

EPR properties:
g-Tensor (aka g-matrix)                 ...  NO
Zero-Field splitting spin-orbit         ...  NO
Zero-field splitting spin-spin          ...  NO
Hyperfine couplings                     ...  NO (   0 nuclei)
Quadrupole couplings                    ...  NO (   0 nuclei)
Contact density                         ...  NO (   0 nuclei)

NMR properties:
Chemical shifts                         ...  NO (   0 nuclei)
Spin-rotation constants                 ...  NO (   0 nuclei)
Spin-spin couplings                     ...  NO (   0 nuclei,    0 pairs)

Choice of magnetic origin               ... GIAO
Position of magnetic origin             ...     0.000000     0.000000     0.000000

Properties with geometric perturbations:
SCF Hessian                             ...  NO
IR spectrum                             ...  NO
VCD spectrum                            ...  NO
X-ray spectroscopy properties:
SCF XES/XAS/RIXS spectra                ...  NO

SCF SOC stabilization energy            ...  NO
Diagonal Born-Oppenheimer correction    ...  NO

-------------
DIPOLE MOMENT
-------------

Method             : SCF
Type of density    : Electron Density
Multiplicity       :   1
Irrep              :   0
Energy             :  -297.5968170312197003 Eh
Basis              : AO
                                X                 Y                 Z
Electronic contribution:     -0.001658866       0.000574397       0.002106584
Nuclear contribution   :     -0.000000000       0.000000000      -0.000000000
                        -----------------------------------------
Total Dipole Moment    :     -0.001658866       0.000574397       0.002106584
                        -----------------------------------------
Magnitude (a.u.)       :      0.002742164
Magnitude (Debye)      :      0.006970028



--------------------
Rotational spectrum 
--------------------
 
Rotational constants in cm-1:             0.074585             0.074360             0.070833 
Rotational constants in MHz :          2236.016125          2229.251118          2123.526693 

Dipole components along the rotational axes: 
x,y,z [a.u.] :    -0.001866    -0.001938     0.000529 
x,y,z [Debye]:    -0.004744    -0.004926     0.001344 

 

Dipole moment calculation done in   0.0 sec 

Maximum memory used throughout the entire PROP-calculation: 9.2 MB

--------------------------------
SUGGESTED CITATIONS FOR THIS RUN
--------------------------------

Below you find a list of papers that are relevant to this ORCA run
We neither can nor want to force you to cite these papers, but we appreciate if you do
You receive ORCA, which is the product of decades of hard work by many enthusiastic individuals, for free
The only thing we kindly ask in return is that you cite our papers,
We deeply appreciate it, if you show your appreciation for ORCA by not just citing the generic ORCA reference.

Please note that relegating all ORCA citations to the supporting information does *not* help us.
SI sections are not indexed - citations you put there will not count into any citation statistics
But we need these citations in order to attract the funding resources that allow us to do what we are doing

Therefore, if you are a happy ORCA user, please consider citing a few of the papers listed below in the main body of your paper

In addition to the list printed below, the program has created the file icosahedron_nn1.70_perturb2.bibtex that contains the list in bibtex format
You can import this file easily into all common literature databanks and citation aid programs

It goes without saying that in many instances, there are alternative algorithms to achieve similar
results as the ones you have gotten from ORCA. It is, of course, also the case that in some instances
ORCA just re-implements algorithms worked out by others. We are fully aware of that and we are also
fully appreciative of our colleagues work. Hence this citation list should not be read as indicating
that the listed papers, which are focused on our own work, are the only ones worth citing. It simply
meant to make it easier for users to cite ORCA specific papers. It is not a substitute for doing your
own literature research and citing the relevant literature in a scientifically appropriate manner.

List of essential papers. We consider these as the minimum necessary citations

  1. Neese, F.
     Software update: the ORCA program system, version 6.0
     WIRES Comput. Molec. Sci. 2025 15(1), e70019
     doi.org/10.1002/wcms.70019

List of papers to cite with high priority. The work reported in these papers was absolutely
necessary for this run to complete.
Our perspective: the developers of density functionals and basis sets usually get cited in chemistry papers
Good! But without the algorithms to do something with them, the functionals or basis sets would not do anything.
Hence, in our opinion, the algorithm design and method developments papers are equally worthy of getting cited

  1. Neese, F.
     An improvement of the resolution of the identity approximation for the formation of the Coulomb matrix
     J. Comp. Chem. 2003 24(14), 1740-1747
     doi.org/10.1002/jcc.10318
  2. Grimme, S.; Antony, J.; Ehrlich, S.; Krieg, H.
     A consistent and accurate ab initio parametrization of density functional dispersion correction (DFT-D) for the 94 elements H-Pu
     J. Chem. Phys. 2010 132 , 154104
     doi.org/10.1063/1.3382344
  3. Grimme, S.; Ehrlich, S.; Goerigk, L.
     Effect of the damping function in dispersion corrected density functional theory
     J. Comput. Chem. 2011 32(7), 1456-1465
     doi.org/10.1002/jcc.21759
  4. Neese, F.
     The SHARK Integral Generation and Digestion System
     J. Comp. Chem. 2022 44(3), 381
     doi.org/10.1002/jcc.26942

List of suggested additional citations. These are papers that are important in the 'surrounding' of 
of this run, or papers that preceded the highly important papers. If you like your results we are grateful for a citation.

  1. Neese, F.
     The ORCA program system
     WIRES Comput. Molec. Sci. 2012 2(1), 73-78
     doi.org/10.1002/wcms.81
  2. Neese, F.
     Software update: the ORCA program system, version 4.0
     WIRES Comput. Molec. Sci. 2018 8(1), 1-6
     doi.org/10.1002/wcms.1327
  3. Neese, F.; Wennmohs, F.; Becker, U.; Riplinger, C.
     The ORCA quantum chemistry program package
     J. Chem. Phys. 2020 152(22), 224108
     doi.org/10.1063/5.0004608
  4. Neese, F.
     Software update: The ORCA program system—Version 5.0
     WIRES Comput. Molec. Sci. 2022 12(1), e1606
     doi.org/10.1002/wcms.1606

List of optional additional citations

  1. Neese, F.
     Approximate second-order SCF convergence for spin unrestricted wavefunctions
     Chem. Phys. Lett. 2000 325(1-3), 93-98
     doi.org/10.1016/s0009-2614(00)00662-x

Timings for individual modules:

Sum of individual times          ...      497.728 sec (=   8.295 min)
Startup calculation              ...       59.235 sec (=   0.987 min)  11.9 %
SCF iterations                   ...      353.869 sec (=   5.898 min)  71.1 %
Property calculations            ...        0.825 sec (=   0.014 min)   0.2 %
SCF Gradient evaluation          ...       82.508 sec (=   1.375 min)  16.6 %
Geometry relaxation              ...        1.290 sec (=   0.022 min)   0.3 %
                             ****ORCA TERMINATED NORMALLY****
TOTAL RUN TIME: 0 days 0 hours 8 minutes 44 seconds 684 msec
