
                                 *****************
                                 * O   R   C   A *
                                 *****************

                                            #,                                       
                                            ###                                      
                                            ####                                     
                                            #####                                    
                                            ######                                   
                                           ########,                                 
                                     ,,################,,,,,                         
                               ,,#################################,,                 
                          ,,##########################################,,             
                       ,#########################################, ''#####,          
                    ,#############################################,,   '####,        
                  ,##################################################,,,,####,       
                ,###########''''           ''''###############################       
              ,#####''   ,,,,##########,,,,          '''####'''          '####       
            ,##' ,,,,###########################,,,                        '##       
           ' ,,###''''                  '''############,,,                           
         ,,##''                                '''############,,,,        ,,,,,,###''
      ,#''                                            '''#######################'''  
     '                                                          ''''####''''         
             ,#######,   #######,   ,#######,      ##                                
            ,#'     '#,  ##    ##  ,#'     '#,    #''#        ,####,    ,#,          
            ##       ##  ##   ,#'  ##            #'  '#       #'       ,# #          
            ##       ##  #######   ##           ,######,      #####,      #          
            '#,     ,#'  ##    ##  '#,     ,#' ,#      #,     #,   #      #          
             '#######'   ##     ##  '#######'  #'      '#     '####' #    #          



                #########################################################
                #                        -***-                          #
                #          Department of theory and spectroscopy        #
                #                                                       #
                #                      Frank Neese                      #
                #                                                       #
                #     Directorship, Architecture, Infrastructure        #
                #                    SHARK, DRIVERS                     #
                #        Core code/Algorithms in most modules           #
                #                                                       #
                #        Max Planck Institute fuer Kohlenforschung      #
                #                Kaiser Wilhelm Platz 1                 #
                #                 D-45470 Muelheim/Ruhr                 #
                #                      Germany                          #
                #                                                       #
                #                  All rights reserved                  #
                #                        -***-                          #
                #########################################################


                         Program Version 6.1.1  -  RELEASE   -
                                (GIT: $487d211c$)
                          ($2025-11-21 10:33:24 +0100$)
                                                                         
                                  - NO-DMRG VERSION -                    
                                                                         


 With contributions from (in alphabetic order):
[Max-Planck-Institut fuer Kohlenforschung]                               
  Daniel Aravena         : Magnetic Suceptibility                        
  Michael Atanasov       : Ab Initio Ligand Field Theory (pilot matlab implementation)
  Alexander A. Auer      : GIAO ZORA, VPT2 properties, NMR spectrum      
  Ute Becker             : All parallelization in ORCA, NUMFREQ, NUMCALC 
  Giovanni Bistoni       : ED, misc. LED, open-shell LED, HFLD           
  Dmytro Bykov           : pre 5.0 version of the SCF Hessian            
  Marcos Casanova-Páez   : Triplet and SCS-CIS(D). UHF-(DLPNO)-IP/EA/STEOM-CCSD. UHF-CVS-IP/STEOM-CCSD   
  Vijay G. Chilkuri      : MRCI spin determinant printing, contributions to CSF-ICE 
  Pauline Colinet        : FMM embedding                                 
  Dipayan Datta          : RHF DLPNO-CCSD density                        
  Achintya Kumar Dutta   : EOM-CC, STEOM-CC                              
  Nicolas Foglia         : Exact transition moments, OPA infrastructure, MCD improvements    
  Dmitry Ganyushin       : Spin-Orbit,Spin-Spin,Magnetic field MRCI      
  Miquel Garcia-Rates    : C-PCM and meta-GGA Hessian, CCSD/C-PCM, Gaussian charge scheme 
  Tiago L. C. Gouveia    : GS-ROHF, GS-ROCIS                             
  Yang Guo               : DLPNO-NEVPT2, F12-NEVPT2, CIM, IAO-localization        
  Andreas Hansen         : Spin unrestricted coupled pair/coupled cluster methods 
  Ingolf Harden          : AUTO-CI MPn and infrastructure                
  Benjamin Helmich-Paris : MC-RPA, TRAH-(SCF,CASSCF), AVAS, COSX integrals, SCF dyn. polar., MC-PDFT, srDFT 
  Lee Huntington         : MR-EOM, pCC                                   
  Robert Izsak           : Overlap fitted RIJCOSX, COSX-SCS-MP3, EOM     
  Riya Kayal             : Wick's Theorem for AUTO-CI, AUTO-CI UHF-CCSDT 
  Emily Kempfer          : AUTO-CI RHF CISDT and CCSDT, approximate NEVPT4
  Christian Kollmar      : KDIIS, OOCD, Brueckner-CCSD(T), CCSD density, CASPT2, CASPT2-K, improved NEVPT2 
  Axel Koslowski         : Symmetry handling                             
  Simone Kossmann        : meta-GGA functionals, TD-DFT gradient, OOMP2, (MP2 Hessian; deprecated post 5.0) 
  Lucas Lang             : DCDCAS, Hyperfine gauge corrections, ICE-SOC+SSC
  Marvin Lechner         : AUTO-CI (C++ implementation), FIC-MRCC        
  Spencer Leger          : CASSCF response                               
  Dagmar Lenk            : GEPOL surface, SMD, ORCA-2-JSON               
  Dimitrios Liakos       : Extrapolation schemes; Compound Job, Property file
  Dimitrios Manganas     : Further ROCIS development; embedding schemes. LFT, Crystal Embedding 
  Dimitrios Pantazis     : SARC Basis sets                               
  Anastasios Papadopoulos: AUTO-CI, single reference methods and gradients 
  Taras Petrenko         : pre 6.0 DFT Hessian and TD-DFT gradient,  ECA, NRVS 
  Petra Pikulova         : Analytic Raman intensities                    
  Peter Pinski           : DLPNO-MP2, DLPNO-MP2 Gradient                 
  Shashank Vittal Rao    : ES-AILFT, MagRelax                            
  Christoph Reimann      : Effective Core Potentials                     
  Marius Retegan         : Local ZFS, SOC                                
  Christoph Riplinger    : Optimizer, TS searches, QM/MM, DLPNO-CCSD(T), (RO)-DLPNO pert. Triples 
  Michael Roemelt        : Original ROCIS implementation, recursive CI coupling coefficients
  Masaaki Saitow         : Open-shell DLPNO-CCSD energy and density      
  Barbara Sandhoefer     : DKH picture change effects                    
  Yorick L. A. Schmerwitz: GMF and freeze-and-release deltaSCF, NEB S-IDPP initial path                    
  Kantharuban Sivalingam : CASSCF convergence/infrastructure, NEVPT2, NEVPT3, NEVPT4(SD), FIC-MRCI and CEPA variants
  Bernardo de Souza      : ESD, SOC TD-DFT                               
  Georgi L. Stoychev     : AutoAux, RI-MP2 NMR, DLPNO-MP2 response, X2C  
  Van Anh Tran           : RI-MP2 g-tensors                              
  Willem Van den Heuvel  : Paramagnetic NMR                              
  Zikuan Wang            : NOTCH, Electric field optimization            
  Frank Wennmohs         : Technical directorship and infrastructure     
  Hang Xu                : AUTO-CI-Response properties                   
                                                                         
[FACCTs GmbH]                                                            
  Markus Bursch, Nicolas Foglia, Miquel Garcia-Rates, Ingolf Harden, Hagen Neugebauer, Anastasios Papadopoulos, 
  Christoph Riplinger, Bernardo de Souza, Georgi L. Stoychev                                                    
                                                                 
  APM, various basis sets, CI-OPT, improved COSX, DLPNO-Multilevel,           
  DOCKER, DRACO, updates on ESD, Fragmentator, GOAT, IRC, LR-CPCM, L-BFGS, MBIS, meta-GGA TD-DFT gradient, ML-optimized integration grids, 
  MM, NACMEs, nearIR, NEB, NEB-TS, NL-DFT gradient (VV10), 2- and 3-layer-ONIOM, interface openCOSMO-RS, QMMM,   
  Crystal-QMMM, RESP, rigid body optimization, SF, symmetry and pop. for TD-DFT, various functionals, SOLVATOR                                   
                                                                         
[Other institutions]                                                     
  V. Asgeirsson          : NEB                                           
  Christoph Bannwarth    : sTDA-DFT, sTD-DFT, PBEh-3c, B97-3c, D3        
  Giovanni Bistoni       : ETS/NOCV, ADLD/ADEX, COVALED                  
  Martin Brehm           : Molecular dynamics                            
  Ronald Cardenas        : ETS/NOCV                                      
  Martina Colucci        : COVALED                                       
  Sebastian Ehlert       : rSCAN, r2SCAN, r2SCAN-3c, D4, dhf basis sets  
  Marvin Friede          : D4 for Fr, Ra, Ac-Lr                          
  Lars Goerigk           : TD-DFT with DH, B97 family of functionals     
  Stefan Grimme          : VdW corrections, initial TS optimization, DFT functionals, gCP, sTDA/sTD-DF 
  Waldemar Hujo          : DFT-NL                                        
  H. Jonsson             : NEB                                           
  Holger Kruse           : gCP                                           
  Marcel Mueller         : wB97X-3c, vDZP basis set                      
  Hagen Neugebauer       : wr2SCAN, Native XTB                           
  Gianluca Regni         : ADLD/ADEX                                     
  Tobias Risthaus        : pre 6.0 range-separated hybrid DFT and stability analysis
  Lukas Wittmann         : regularized MP2, r2SCAN double-hybrids, wr2SCAN        
                                                                         
We gratefully acknowledge several colleagues who have allowed us to      
interface, adapt or use parts of their codes:                            
  Ed Valeev, F. Pavosevic, A. Kumar             : LibInt (2-el integral package), F12 methods 
  Garnet Chan, S. Sharma, J. Yang, R. Olivares  : DMRG                   
  Ulf Ekstrom                                   : XCFun DFT Library      
  Mihaly Kallay                                 : mrcc  (arbitrary order and MRCC methods)
  Frank Weinhold                                : gennbo (NPA and NBO analysis)           
  Simon Mueller                                 : openCOSMO-RS                            
  Christopher J. Cramer and Donald G. Truhlar   : smd solvation model                     
  S Lehtola, MJT Oliveira, MAL Marques          : LibXC Library                           
  Liviu Ungur et al                             : ANISO software                          


 Your calculation uses the libint2 library for the computation of 2-el integrals
 For citations please refer to: http://libint.valeyev.net

 Your ORCA version has been built with support for libXC version: 7.0.0
 For citations please refer to: https://libxc.gitlab.io

 This ORCA versions uses:
   CBLAS   interface :  Fast vector & matrix operations
   LAPACKE interface :  Fast linear algebra routines
   SCALAPACK package :  Parallel linear algebra routines
   Shared memory     :  Shared parallel matrices
   BLAS/LAPACK       :  OpenBLAS 0.3.29  USE64BITINT DYNAMIC_ARCH NO_AFFINITY Zen SINGLE_THREADED
        Core in use  :  Zen
   Copyright (c) 2011-2014, The OpenBLAS Project


  ***********************************
  * Starting time: Thu Apr 23 09:04:14 2026
  * Host name:     vmi3233575
  * Process ID:    1077937
  * Working dir.:  /root/b12_scan/jobs/cuboctahedron_nn1.70_perturb0
  ***********************************

NOTE: MaxCore=2500 MB was set to SCF,MP2,MDCI,CIPSI,MRCI,RASCI and CIS
      => If you want to overwrite this, your respective input block should be placed after the MaxCore statement
Your calculation utilizes the atom-pairwise dispersion correction
with the Becke-Johnson damping scheme (D3BJ)


================================================================================

----- Orbital basis set information -----
Your calculation utilizes the basis: def2-SVP
   F. Weigend and R. Ahlrichs, Phys. Chem. Chem. Phys. 7, 3297 (2005).

----- AuxJ basis set information -----
Your calculation utilizes the auxiliary basis: def2/J
   H-Rn: F. Weigend, Phys. Chem. Chem. Phys. 8, 1057 (2006).
   Fr-Lr: K. Eichkorn, F. Weigend, O. Treutler, R. Ahlrichs; Theor. Chem. Acc. 97, 119 (1997).

================================================================================
                                        WARNINGS
                       Please study these warnings very carefully!
================================================================================


WARNING: Geometry Optimization
  ===> : Switching off AutoStart
         For restart on a previous wavefunction, please use MOREAD

================================================================================
                                       INPUT FILE
================================================================================
NAME = cuboctahedron_nn1.70_perturb0.inp
|  1> ! BP86 def2-SVP def2/J RI Opt TightSCF D3BJ
|  2> ! SlowConv
|  3> 
|  4> %pal nprocs 8 end
|  5> %maxcore 2500
|  6> 
|  7> %geom
|  8>   MaxIter 300
|  9> end
| 10> 
| 11> * xyz 0 1
| 12> B      0.01885953     -1.22189726     -1.10601813
| 13> B     -1.18634651     -0.08035041     -1.14784227
| 14> B     -1.00648152     -1.06001938     -0.10556029
| 15> B     -0.18981322     -1.29557270      1.20828042
| 16> B     -1.55083614     -0.03281875      1.01519489
| 17> B     -1.31192163      1.12044268     -0.04744502
| 18> B      0.06174458      1.35845853     -1.22136173
| 19> B      1.40705105     -0.09977920     -1.14935502
| 20> B      1.33760206     -1.18797968     -0.11152489
| 21> B     -0.13825881      1.13342265      1.23511080
| 22> B      1.05063880     -0.03137634      1.17819778
| 23> B      1.28320837      1.23428040      0.05330591
| 24> *
| 25> 
| 26>                          ****END OF INPUT****
================================================================================

                       *****************************
                       * Geometry Optimization Run *
                       *****************************

Geometry optimization settings:
Update method            Update   .... BFGS
Choice of coordinates    CoordSys .... (2022) Redundant Internals
Initial Hessian          InHess   .... Almloef's Model
Max. no of cycles        MaxIter  .... 300

Convergence Tolerances:
Energy Change            TolE     ....  5.0000e-06 Eh
Max. Gradient            TolMAXG  ....  3.0000e-04 Eh/bohr
RMS Gradient             TolRMSG  ....  1.0000e-04 Eh/bohr
Max. Displacement        TolMAXD  ....  4.0000e-03 bohr
RMS Displacement         TolRMSD  ....  2.0000e-03 bohr
Strict Convergence                .... False

------------------------------------------------------------------------------
                        ORCA OPTIMIZATION COORDINATE SETUP
------------------------------------------------------------------------------

The optimization will be done in redundant internal coordinates (2022)
Making redundant internal coordinates   ...  (2022 redundants) done
Evaluating the initial hessian          ...  (Almloef) done
Evaluating the coordinates              ...  done
Calculating the B-matrix                .... done
Calculating the G-matrix                .... done
The number of degrees of freedom        ....  240

    -----------------------------------------------------------------
                    Redundant Internal Coordinates


    -----------------------------------------------------------------
         Definition                    Initial Value    Approx d2E/dq
    -----------------------------------------------------------------
      1. B(B   1,B   0)                  1.6605         0.310271   
      2. B(B   2,B   1)                  1.4417         0.693288   
      3. B(B   2,B   0)                  1.4417         0.693297   
      4. B(B   3,B   2)                  1.5648         0.441048   
      5. B(B   4,B   2)                  1.6148         0.367055   
      6. B(B   4,B   3)                  1.8666         0.145540   
      7. B(B   5,B   1)                  1.6336         0.342590   
      8. B(B   5,B   4)                  1.5863         0.407582   
      9. B(B   6,B   5)                  1.8226         0.171106   
     10. B(B   6,B   1)                  1.9061         0.125873   
     11. B(B   7,B   6)                  1.9853         0.094098   
     12. B(B   7,B   0)                  1.7855         0.196037   
     13. B(B   8,B   7)                  1.5054         0.548695   
     14. B(B   8,B   3)                  2.0215         0.082387   
     15. B(B   8,B   0)                  1.6520         0.320110   
     16. B(B   9,B   5)                  1.7386         0.232950   
     17. B(B   9,B   4)                  1.8450         0.157588   
     18. B(B  10,B   9)                  1.6654         0.304811   
     19. B(B  10,B   8)                  1.7560         0.218513   
     20. B(B  10,B   3)                  1.7714         0.206487   
     21. B(B  11,B  10)                  1.7092         0.259486   
     22. B(B  11,B   9)                  1.8513         0.153943   
     23. B(B  11,B   7)                  1.8004         0.185611   
     24. B(B  11,B   6)                  1.7698         0.207700   
     25. A(B   7,B   0,B   8)           51.7637         0.327900   
     26. A(B   1,B   0,B   7)           97.5642         0.326218   
     27. A(B   2,B   0,B   7)          119.9486         0.373564   
     28. A(B   2,B   0,B   8)           98.4922         0.406966   
     29. A(B   1,B   0,B   2)           54.8371         0.404728   
     30. A(B   1,B   0,B   8)          125.4794         0.354063   
     31. A(B   2,B   1,B   5)           91.2662         0.411888   
     32. A(B   0,B   1,B   2)           54.8369         0.404727   
     33. A(B   2,B   1,B   6)          117.3308         0.346413   
     34. A(B   0,B   1,B   5)          122.9670         0.358166   
     35. A(B   5,B   1,B   6)           61.4097         0.308452   
     36. A(B   0,B   1,B   6)           92.5593         0.303585   
     37. A(B   1,B   2,B   3)          140.7521         0.430887   
     38. A(B   0,B   2,B   4)          142.4499         0.416969   
     39. A(B   0,B   2,B   3)          101.2198         0.430888   
     40. A(B   3,B   2,B   4)           71.8774         0.385055   
     41. A(B   0,B   2,B   1)           70.3259         0.467742   
     42. A(B   1,B   2,B   4)           91.5733         0.416968   
     43. A(B   4,B   3,B   8)          116.5762         0.253258   
     44. A(B   4,B   3,B  10)           91.4922         0.291228   
     45. A(B   8,B   3,B  10)           54.6769         0.266790   
     46. A(B   2,B   3,B  10)          104.1098         0.348911   
     47. A(B   2,B   3,B   8)           80.6858         0.300110   
     48. A(B   2,B   3,B   4)           55.3038         0.329127   
     49. A(B   5,B   4,B   9)           60.3280         0.329161   
     50. A(B   2,B   4,B   5)           86.9480         0.379814   
     51. A(B   3,B   4,B   5)          116.8274         0.324877   
     52. A(B   3,B   4,B   9)           81.7806         0.279229   
     53. A(B   2,B   4,B   9)          103.1049         0.323535   
     54. A(B   2,B   4,B   3)           52.8189         0.319351   
     55. A(B   6,B   5,B   9)           88.0160         0.304578   
     56. A(B   4,B   5,B   9)           67.2268         0.351374   
     57. A(B   1,B   5,B   9)          116.7775         0.341259   
     58. A(B   4,B   5,B   6)          129.7877         0.333677   
     59. A(B   1,B   5,B   6)           66.6828         0.324244   
     60. A(B   1,B   5,B   4)           85.8949         0.375310   
     61. A(B   7,B   6,B  11)           56.9521         0.272463   
     62. A(B   5,B   6,B  11)           92.7005         0.299052   
     63. A(B   1,B   6,B  11)          111.7877         0.284951   
     64. A(B   5,B   6,B   7)          113.0445         0.264590   
     65. A(B   1,B   6,B   7)           83.5615         0.252802   
     66. A(B   1,B   6,B   5)           51.9076         0.276541   
     67. A(B   8,B   7,B  11)           94.1252         0.355572   
     68. A(B   6,B   7,B  11)           55.4837         0.267853   
     69. A(B   0,B   7,B  11)          113.3270         0.300176   
     70. A(B   0,B   7,B   6)           86.3105         0.270079   
     71. A(B   6,B   7,B   8)          121.6488         0.317581   
     72. A(B   0,B   7,B   8)           59.5424         0.358890   
     73. A(B   7,B   8,B  10)           92.1643         0.365603   
     74. A(B   3,B   8,B  10)           55.3927         0.269083   
     75. A(B   0,B   8,B  10)          108.9783         0.333842   
     76. A(B   3,B   8,B   7)          121.5639         0.310807   
     77. A(B   0,B   8,B   7)           68.6939         0.390570   
     78. A(B   0,B   8,B   3)           77.8064         0.285338   
     79. A(B   5,B   9,B  11)           92.7407         0.299481   
     80. A(B   4,B   9,B  11)          123.1078         0.281661   
     81. A(B   5,B   9,B  10)          116.8399         0.334675   
     82. A(B   4,B   9,B  10)           95.7617         0.313876   
     83. A(B   4,B   9,B   5)           52.4451         0.300599   
     84. A(B  10,B   9,B  11)           57.8698         0.312688   
     85. A(B   8,B  10,B   9)          127.0456         0.331143   
     86. A(B   3,B  10,B   9)           89.9233         0.328060   
     87. A(B   3,B  10,B   8)           69.9304         0.310712   
     88. A(B   9,B  10,B  11)           66.5287         0.340748   
     89. A(B   8,B  10,B  11)           88.9753         0.322479   
     90. A(B   3,B  10,B  11)          129.4153         0.319506   
     91. A(B   6,B  11,B   7)           67.5642         0.302956   
     92. A(B   9,B  11,B  10)           55.6015         0.304684   
     93. A(B   7,B  11,B  10)           84.2782         0.314012   
     94. A(B   6,B  11,B  10)          115.5985         0.319812   
     95. A(B   7,B  11,B   9)          116.0316         0.288932   
     96. A(B   6,B  11,B   9)           86.1966         0.294086   
     97. D(B   6,B   1,B   0,B   2)    122.0518         0.010000   
     98. D(B   5,B   1,B   0,B   7)    -56.6290         0.010000   
     99. D(B   2,B   1,B   0,B   8)    -73.7236         0.010000   
    100. D(B   5,B   1,B   0,B   2)     64.8693         0.010000   
    101. D(B   5,B   1,B   0,B   8)     -8.8543         0.010000   
    102. D(B   2,B   1,B   0,B   7)   -121.4982         0.010000   
    103. D(B   1,B   2,B   0,B   7)     77.2886         0.026231   
    104. D(B   3,B   2,B   1,B   0)     83.6250         0.026231   
    105. D(B   3,B   2,B   1,B   5)    -46.9326         0.026231   
    106. D(B   3,B   2,B   0,B   7)    -62.8439         0.026231   
    107. D(B   1,B   2,B   0,B   8)    127.7815         0.026231   
    108. D(B   0,B   2,B   1,B   6)    -72.3865         0.026231   
    109. D(B   3,B   2,B   0,B   1)   -140.1324         0.026231   
    110. D(B   4,B   2,B   0,B   1)    -65.3375         0.026231   
    111. D(B   4,B   2,B   1,B   0)    146.3533         0.026231   
    112. D(B   3,B   2,B   1,B   6)     11.2385         0.026231   
    113. D(B   3,B   2,B   0,B   8)    -12.3509         0.026231   
    114. D(B   0,B   2,B   1,B   5)   -130.5576         0.026231   
    115. D(B  10,B   3,B   2,B   0)     59.8972         0.010681   
    116. D(B   8,B   3,B   2,B   4)   -131.6799         0.010681   
    117. D(B   4,B   3,B   2,B   0)    141.7701         0.010681   
    118. D(B   4,B   3,B   2,B   1)     69.2096         0.010681   
    119. D(B   8,B   3,B   2,B   1)    -62.4703         0.010681   
    120. D(B   8,B   3,B   2,B   0)     10.0902         0.010681   
    121. D(B   2,B   4,B   3,B   8)     55.4972         0.010000   
    122. D(B   3,B   4,B   2,B   1)   -143.7221         0.010000   
    123. D(B   5,B   4,B   2,B   3)    127.4230         0.010000   
    124. D(B   9,B   4,B   2,B   0)    -15.9963         0.010000   
    125. D(B   5,B   4,B   2,B   0)     42.5772         0.010000   
    126. D(B   3,B   4,B   2,B   0)    -84.8459         0.010000   
    127. D(B   5,B   4,B   2,B   1)    -16.2990         0.010000   
    128. D(B   5,B   4,B   3,B   8)     -7.2124         0.010000   
    129. D(B   5,B   4,B   3,B   2)    -62.7096         0.010000   
    130. D(B   5,B   4,B   3,B  10)     43.4652         0.010000   
    131. D(B   2,B   4,B   3,B  10)    106.1748         0.010000   
    132. D(B   9,B   4,B   3,B   2)   -113.3971         0.010000   
    133. D(B   6,B   5,B   4,B   9)     66.5166         0.010000   
    134. D(B   6,B   5,B   4,B   2)    -40.4432         0.010000   
    135. D(B   1,B   5,B   4,B   3)     59.5307         0.010000   
    136. D(B   6,B   5,B   1,B   2)    120.7283         0.010000   
    137. D(B   9,B   5,B   1,B   0)     -1.9750         0.010000   
    138. D(B   6,B   5,B   1,B   0)     72.9704         0.010000   
    139. D(B   4,B   5,B   1,B   6)   -136.8517         0.010000   
    140. D(B   4,B   5,B   1,B   2)    -16.1234         0.010000   
    141. D(B   1,B   5,B   4,B   9)    121.3325         0.010000   
    142. D(B   6,B   5,B   4,B   3)      4.7149         0.010000   
    143. D(B   4,B   5,B   1,B   0)    -63.8814         0.010000   
    144. D(B   1,B   5,B   4,B   2)     14.3727         0.010000   
    145. D(B  11,B   6,B   5,B   1)   -115.7957         0.010000   
    146. D(B   1,B   6,B   5,B   4)     62.5868         0.010000   
    147. D(B   1,B   6,B   5,B   9)    120.3858         0.010000   
    148. D(B   7,B   6,B   5,B   4)      1.8156         0.010000   
    149. D(B  11,B   6,B   1,B   0)    -50.9930         0.010000   
    150. D(B   7,B   6,B   5,B   9)     59.6146         0.010000   
    151. D(B   7,B   6,B   1,B   5)    126.0859         0.010000   
    152. D(B   7,B   6,B   1,B   2)     50.7610         0.010000   
    153. D(B   7,B   6,B   5,B   1)    -60.7712         0.010000   
    154. D(B   5,B   6,B   1,B   0)   -126.5826         0.010000   
    155. D(B   7,B   6,B   1,B   0)     -0.4967         0.010000   
    156. D(B   5,B   6,B   1,B   2)    -75.3249         0.010000   
    157. D(B   6,B   7,B   0,B   8)   -130.3829         0.010000   
    158. D(B   6,B   7,B   0,B   2)    -54.0923         0.010000   
    159. D(B   6,B   7,B   0,B   1)     -0.5321         0.010000   
    160. D(B   8,B   7,B   6,B  11)     71.2569         0.010000   
    161. D(B   0,B   7,B   6,B   1)      0.4624         0.010000   
    162. D(B   0,B   7,B   6,B  11)    121.7301         0.010000   
    163. D(B   0,B   7,B   6,B   5)     44.1852         0.010000   
    164. D(B   8,B   7,B   6,B   5)     -6.2879         0.010000   
    165. D(B  11,B   7,B   0,B   1)     49.2146         0.010000   
    166. D(B   8,B   7,B   0,B   2)     76.2906         0.010000   
    167. D(B   8,B   7,B   0,B   1)    129.8509         0.010000   
    168. D(B   8,B   7,B   6,B   1)    -50.0108         0.010000   
    169. D(B  10,B   8,B   7,B   0)   -109.5469         0.016265   
    170. D(B   3,B   8,B   7,B  11)     55.0937         0.016265   
    171. D(B   3,B   8,B   7,B   6)      3.6224         0.016265   
    172. D(B   0,B   8,B   7,B  11)    114.7178         0.016265   
    173. D(B   0,B   8,B   7,B   6)     63.2465         0.016265   
    174. D(B   7,B   8,B   3,B  10)    -68.2802         0.010000   
    175. D(B   7,B   8,B   3,B   4)      3.1289         0.010000   
    176. D(B   7,B   8,B   3,B   2)     46.4914         0.010000   
    177. D(B   0,B   8,B   3,B  10)   -123.5973         0.010000   
    178. D(B   0,B   8,B   3,B   4)    -52.1882         0.010000   
    179. D(B   0,B   8,B   3,B   2)     -8.8257         0.010000   
    180. D(B  10,B   8,B   0,B   1)     15.6069         0.010000   
    181. D(B   7,B   8,B   0,B   2)   -121.6664         0.010000   
    182. D(B   3,B   8,B   7,B   0)    -59.6242         0.016265   
    183. D(B   7,B   8,B   0,B   1)    -69.1571         0.010000   
    184. D(B   3,B   8,B   0,B   7)    131.2309         0.010000   
    185. D(B   3,B   8,B   0,B   2)      9.5645         0.010000   
    186. D(B   3,B   8,B   0,B   1)     62.0738         0.010000   
    187. D(B  11,B   9,B   5,B   1)     58.1533         0.010000   
    188. D(B  10,B   9,B   5,B   6)    -59.4617         0.010000   
    189. D(B  10,B   9,B   5,B   4)     75.6926         0.010000   
    190. D(B  10,B   9,B   5,B   1)      3.0793         0.010000   
    191. D(B   4,B   9,B   5,B   6)   -135.1543         0.010000   
    192. D(B   4,B   9,B   5,B   1)    -72.6134         0.010000   
    193. D(B  11,B   9,B   4,B   2)     14.1494         0.010000   
    194. D(B  10,B   9,B   4,B   5)   -119.6589         0.010000   
    195. D(B  10,B   9,B   4,B   3)      7.7214         0.010000   
    196. D(B  10,B   9,B   4,B   2)    -40.9358         0.010000   
    197. D(B   5,B   9,B   4,B   3)    127.3802         0.010000   
    198. D(B   5,B   9,B   4,B   2)     78.7231         0.010000   
    199. D(B   8,B  10,B   9,B  11)    -69.3796         0.010000   
    200. D(B   8,B  10,B   9,B   4)     56.4169         0.010000   
    201. D(B   3,B  10,B   9,B  11)   -133.8516         0.010000   
    202. D(B   3,B  10,B   9,B   5)    -58.5962         0.010000   
    203. D(B   3,B  10,B   9,B   4)     -8.0550         0.010000   
    204. D(B  11,B  10,B   8,B   0)    -73.6254         0.010000   
    205. D(B   9,B  10,B   8,B   7)     53.7289         0.010000   
    206. D(B   9,B  10,B   8,B   3)    -73.8860         0.010000   
    207. D(B   9,B  10,B   8,B   0)    -14.4620         0.010000   
    208. D(B   3,B  10,B   8,B   7)    127.6149         0.010000   
    209. D(B   3,B  10,B   8,B   0)     59.4240         0.010000   
    210. D(B  11,B  10,B   3,B   2)      3.5389         0.010000   
    211. D(B   9,B  10,B   3,B   8)    129.9327         0.010000   
    212. D(B   9,B  10,B   3,B   4)      7.9232         0.010000   
    213. D(B   9,B  10,B   3,B   2)     62.4316         0.010000   
    214. D(B   8,B  10,B   9,B   5)      5.8757         0.010000   
    215. D(B   8,B  10,B   3,B   4)   -122.0095         0.010000   
    216. D(B   8,B  10,B   3,B   2)    -67.5011         0.010000   
    217. D(B  10,B  11,B   6,B   1)     -5.3297         0.010000   
    218. D(B   9,B  11,B   6,B   7)   -120.2188         0.010000   
    219. D(B   9,B  11,B   6,B   5)     -4.3169         0.010000   
    220. D(B   9,B  11,B   6,B   1)    -54.0554         0.010000   
    221. D(B   7,B  11,B   6,B   5)    115.9019         0.010000   
    222. D(B   6,B  11,B   7,B   0)    -67.5670         0.010000   
    223. D(B   7,B  11,B   6,B   1)     66.1634         0.010000   
    224. D(B   7,B  11,B  10,B   9)   -127.0953         0.010000   
    225. D(B   7,B  11,B  10,B   3)    -58.1189         0.010000   
    226. D(B   6,B  11,B  10,B   9)    -65.3446         0.010000   
    227. D(B   6,B  11,B  10,B   8)     66.3120         0.010000   
    228. D(B   7,B  11,B   9,B  10)     62.0387         0.010000   
    229. D(B   7,B  11,B   9,B   5)    -58.2066         0.010000   
    230. D(B   7,B  11,B   9,B   4)    -12.4156         0.010000   
    231. D(B   6,B  11,B   9,B  10)    124.7713         0.010000   
    232. D(B   6,B  11,B   9,B   5)      4.5260         0.010000   
    233. D(B   6,B  11,B   9,B   4)     50.3169         0.010000   
    234. D(B   6,B  11,B  10,B   3)      3.6318         0.010000   
    235. D(B  10,B  11,B   7,B   0)     53.1738         0.010000   
    236. D(B   9,B  11,B   7,B   8)    -52.4285         0.010000   
    237. D(B   9,B  11,B   7,B   6)     73.6481         0.010000   
    238. D(B   7,B  11,B  10,B   8)      4.5613         0.010000   
    239. D(B   9,B  11,B   7,B   0)      6.0811         0.010000   
    240. D(B   6,B  11,B   7,B   8)   -126.0766         0.010000   
    -----------------------------------------------------------------

Number of atoms                         .... 12
Number of degrees of freedom            .... 240


         *************************************************************
         *                GEOMETRY OPTIMIZATION CYCLE   1            *
         *************************************************************
---------------------------------
CARTESIAN COORDINATES (ANGSTROEM)
---------------------------------
  B      0.018860   -1.221897   -1.106018
  B     -1.186347   -0.080350   -1.147842
  B     -1.006482   -1.060019   -0.105560
  B     -0.189813   -1.295573    1.208280
  B     -1.550836   -0.032819    1.015195
  B     -1.311922    1.120443   -0.047445
  B      0.061745    1.358459   -1.221362
  B      1.407051   -0.099779   -1.149355
  B      1.337602   -1.187980   -0.111525
  B     -0.138259    1.133423    1.235111
  B      1.050639   -0.031376    1.178198
  B      1.283208    1.234280    0.053306

----------------------------
CARTESIAN COORDINATES (A.U.)
----------------------------
  NO LB      ZA    FRAG     MASS         X           Y           Z
   0 B     5.0000    0    10.810    0.035639   -2.309051   -2.090071
   1 B     5.0000    0    10.810   -2.241870   -0.151840   -2.169108
   2 B     5.0000    0    10.810   -1.901974   -2.003146   -0.199480
   3 B     5.0000    0    10.810   -0.358695   -2.448278    2.283319
   4 B     5.0000    0    10.810   -2.930656   -0.062018    1.918440
   5 B     5.0000    0    10.810   -2.479173    2.117330   -0.089658
   6 B     5.0000    0    10.810    0.116680    2.567115   -2.308039
   7 B     5.0000    0    10.810    2.658941   -0.188555   -2.171966
   8 B     5.0000    0    10.810    2.527702   -2.244956   -0.210751
   9 B     5.0000    0    10.810   -0.261271    2.141858    2.334021
  10 B     5.0000    0    10.810    1.985420   -0.059293    2.226471
  11 B     5.0000    0    10.810    2.424912    2.332452    0.100734

--------------------------------
INTERNAL COORDINATES (ANGSTROEM)
--------------------------------
 B      0   0   0     0.000000000000     0.00000000     0.00000000
 B      1   0   0     1.660542100726     0.00000000     0.00000000
 B      1   2   0     1.441681173653    54.83712607     0.00000000
 B      3   1   2     1.564803466906   101.21981478   219.86757227
 B      3   1   2     1.614792636868   142.44986147   294.66247750
 B      5   3   1     1.586283596126    86.94796721    42.57715557
 B      6   5   3     1.822550642195   129.78772991   319.55683338
 B      1   2   3     1.785525895307    97.56415977   238.50177451
 B      8   1   2     1.505355381835    59.54237666   129.85085373
 B      6   5   3     1.738563293667    67.22683718   253.04018355
 B     10   6   5     1.665374824481   116.83989462    75.69264927
 B     11  10   6     1.709197855015    66.52870696    75.25535371

---------------------------
INTERNAL COORDINATES (A.U.)
---------------------------
 B      0   0   0     0.000000000000     0.00000000     0.00000000
 B      1   0   0     3.137969804219     0.00000000     0.00000000
 B      1   2   0     2.724382590635    54.83712607     0.00000000
 B      3   1   2     2.957050005863   101.21981478   219.86757227
 B      3   1   2     3.051515846754   142.44986147   294.66247750
 B      5   3   1     2.997641567410    86.94796721    42.57715557
 B      6   5   3     3.444121578950   129.78772991   319.55683338
 B      1   2   3     3.374154947155    97.56415977   238.50177451
 B      8   1   2     2.844709405893    59.54237666   129.85085373
 B      6   5   3     3.285408491519    67.22683718   253.04018355
 B     10   6   5     3.147102328596   116.83989462    75.69264927
 B     11  10   6     3.229915854665    66.52870696    75.25535371

---------------------
BASIS SET INFORMATION
---------------------
There are 1 groups of distinct atoms

 Group   1 Type B   : 7s4p1d contracted to 3s2p1d pattern {511/31/1}

Atom   0B    basis set group =>   1
Atom   1B    basis set group =>   1
Atom   2B    basis set group =>   1
Atom   3B    basis set group =>   1
Atom   4B    basis set group =>   1
Atom   5B    basis set group =>   1
Atom   6B    basis set group =>   1
Atom   7B    basis set group =>   1
Atom   8B    basis set group =>   1
Atom   9B    basis set group =>   1
Atom  10B    basis set group =>   1
Atom  11B    basis set group =>   1
---------------------------------
AUXILIARY/J BASIS SET INFORMATION
---------------------------------
There are 1 groups of distinct atoms

 Group   1 Type B   : 12s5p4d2f1g contracted to 6s4p3d1f1g pattern {711111/2111/211/2/1}

Atom   0B    basis set group =>   1
Atom   1B    basis set group =>   1
Atom   2B    basis set group =>   1
Atom   3B    basis set group =>   1
Atom   4B    basis set group =>   1
Atom   5B    basis set group =>   1
Atom   6B    basis set group =>   1
Atom   7B    basis set group =>   1
Atom   8B    basis set group =>   1
Atom   9B    basis set group =>   1
Atom  10B    basis set group =>   1
Atom  11B    basis set group =>   1


           ************************************************************
           *        Program running with 8 parallel MPI-processes     *
           *              working on a common directory               *
           ************************************************************
------------------------------------------------------------------------------
                             ORCA STARTUP CALCULATIONS
                           -- RI-GTO INTEGRALS CHOSEN --
------------------------------------------------------------------------------
------------------------------------------------------------------------------
                   ___                                                        
                  /   \      - P O W E R E D   B Y -                         
                 /     \                                                     
                 |  |  |   _    _      __       _____    __    __             
                 |  |  |  | |  | |    /  \     |  _  \  |  |  /  |          
                  \  \/   | |  | |   /    \    | | | |  |  | /  /          
                 / \  \   | |__| |  /  /\  \   | |_| |  |  |/  /          
                |  |  |   |  __  | /  /__\  \  |    /   |      \           
                |  |  |   | |  | | |   __   |  |    \   |  |\   \          
                \     /   | |  | | |  |  |  |  | |\  \  |  | \   \       
                 \___/    |_|  |_| |__|  |__|  |_| \__\ |__|  \__/        
                                                                              
                      - O R C A' S   B I G   F R I E N D -                    
                                      &                                       
                       - I N T E G R A L  F E E D E R -                       
                                                                              
 v1 FN, 2020, v2 2021, v3 2022-2024                                           
------------------------------------------------------------------------------


----------------------
SHARK INTEGRAL PACKAGE
----------------------

Number of atoms                             ...     12
Number of basis functions                   ...    168
Number of shells                            ...     72
Maximum angular momentum                    ...      2
Integral batch strategy                     ... SHARK/LIBINT Hybrid
RI-J (if used) integral strategy            ... SPLIT-RIJ (Revised 2003 algorithm where possible)
Printlevel                                  ...      1
Contraction scheme used                     ... SEGMENTED contraction
Prescreening option                         ... SCHWARTZ
   Thresh                                   ... 2.500e-11
   Tcut                                     ... 2.500e-12
   Tpresel                                  ... 2.500e-12 
Coulomb Range Separation                    ... NOT USED
Exchange Range Separation                   ... NOT USED
Multipole approximations                    ... NOT USED
Finite Nucleus Model                        ... NOT USED
CABS basis                                  ... NOT available
Auxiliary Coulomb fitting basis             ... AVAILABLE
   # of basis functions in Aux-J            ...    588
   # of shells in Aux-J                     ...    180
   Maximum angular momentum in Aux-J        ...      4
Auxiliary J/K fitting basis                 ... NOT available
Auxiliary Correlation fitting basis         ... NOT available
Auxiliary 'external' fitting basis          ... NOT available

Checking pre-screening integrals            ... done (  0.0 sec) Dimension = 72
   => SHARK Basis and OBASIS are compatible. Storing Pre-screening
Shell pair information
Shell pair cut-off parameter TPreSel        ...   2.5e-12
Total number of shell pairs                 ...      2628
Shell pairs after pre-screening             ...      2592
Total number of primitive shell pairs       ...     10596
Primitive shell pairs kept                  ...      8144
          la=0 lb=0:    630 shell pairs
          la=1 lb=0:    864 shell pairs
          la=1 lb=1:    300 shell pairs
          la=2 lb=0:    432 shell pairs
          la=2 lb=1:    288 shell pairs
          la=2 lb=2:     78 shell pairs

Checking whether 4 symmetric matrices of dimension 168 fit in memory
:Max Core in MB      =   2500.00
 MB in use           =      6.95
 MB left             =   2493.05
 MB needed           =      0.43
 Data fit in memory  = YES
Calculating RI/J V-Matrix + Cholesky decomp.... done (  0.0 sec)
Calculating Nuclear repulsion               ... done (  0.0 sec) ENN=    381.481605345671 Eh

Diagonalization of the overlap matrix:
Smallest eigenvalue                        ... 3.105e-05
Time for diagonalization                   ...    0.004 sec
Threshold for overlap eigenvalues          ... 1.000e-07
Number of eigenvalues below threshold      ... 0
Time for construction of square roots      ...    0.026 sec
Total time needed                          ...    0.036 sec

-------------------
DFT GRID GENERATION
-------------------

General Integration Accuracy     IntAcc      ... 4.388
Radial Grid Type                 RadialGrid  ... OptM3 with GC (2021)
Angular Grid (max. ang.)         AngularGrid ... 4 (Lebedev-302)
Angular grid pruning method      GridPruning ... 4 (adaptive)
Weight generation scheme         WeightScheme... mBecke (2022)
Basis function cutoff            BFCut       ... 1.0000e-11
Integration weight cutoff        WCut        ... 1.0000e-14
Partially contracted basis set               ... off
Rotationally invariant grid construction     ... off
Angular grids for H and He will be reduced by one unit

Total number of grid points                  ...    70029
Total number of batches                      ...     1102
Average number of points per batch           ...       63
Average number of grid points per atom       ...     5836
Grids setup in   0.7 sec
Initializing property integral containers    ... done (  0.0 sec)

SHARK setup successfully completed in   0.9 seconds

Maximum memory used throughout the entire STARTUP-calculation: 19.8 MB


           ************************************************************
           *        Program running with 8 parallel MPI-processes     *
           *              working on a common directory               *
           ************************************************************
-------------------------------------------------------------------------------
                                 ORCA GUESS
                   Start orbitals & Density for SCF / CASSCF
-------------------------------------------------------------------------------

------------
SCF SETTINGS
------------
Hamiltonian:
 Density Functional     Method          .... DFT(GTOs)
 Exchange Functional    Exchange        .... B88
   X-Alpha parameter    XAlpha          ....  0.666667
   Becke's b parameter  XBeta           ....  0.004200
 Correlation Functional Correlation     .... P86
 LDA part of GGA corr.  LDAOpt          .... PW91-LDA
 Gradients option       PostSCFGGA      .... off
   NL short-range parameter             ....  4.400000
 RI-approximation to the Coulomb term is turned on
   Number of AuxJ basis functions       .... 588


General Settings:
 Integral files         IntName         .... cuboctahedron_nn1.70_perturb0
 Hartree-Fock type      HFTyp           .... RHF
 Total Charge           Charge          ....    0
 Multiplicity           Mult            ....    1
 Number of Electrons    NEL             ....   60
 Basis Dimension        Dim             ....  168
 Nuclear Repulsion      ENuc            ....    381.4816053457 Eh

Convergence Acceleration:
 AO-DIIS                CNVDIIS         .... on
   Start iteration      DIISMaxIt       ....     0
   Startup error        DIISStart       ....  0.200000
   # of expansion vecs  DIISMaxEq       ....     5
   Bias factor          DIISBfac        ....   1.050
   Max. coefficient     DIISMaxC        ....  10.000
 MO-DIIS                CNVKDIIS        .... off
 Trust-Rad. Augm. Hess. CNVTRAH         .... auto
   Auto Start mean grad. ratio tolernc. ....  1.125000
   Auto Start start iteration           ....    50
   Auto Start num. interpolation iter.  ....    10
   Max. Number of Micro iterations      ....    24
   Max. Number of Macro iterations      .... Maxiter - #DIIS iter
   Number of Davidson start vectors     ....     2
   Converg. threshold    (grad. norm)   ....   1.000e-05
   Grad. Scal. Fac. for Micro threshold ....   0.100
   Minimum threshold for Micro iter.    ....   1.000e-02
   NR start threshold (gradient norm)   ....   1.000e-04
   Initial trust radius                 ....   0.400
   Minimum AH scaling param. (alpha)    ....   1.000
   Maximum AH scaling param. (alpha)    .... 1000.000
   Quad. conv. algorithm                .... NR
   White noise on init. David. guess    .... on
   Maximum white noise                  ....   0.010
   Pseudo random numbers                .... off
   Inactive MOs                         .... canonical
   Orbital update algorithm             .... Taylor
   Preconditioner                       .... Diag
   Full preconditioner red. dimension   ....   250
 SOSCF                 CNVSOSCF           .... on
   Start iteration     SOSCFMaxIt         ....   150
   Startup grad/error  SOSCFStart         ....  0.001000
   Hessian update      SOSCFHessUp        .... L-BFGS
   Autom. constraints  SOSCFAutoConstrain .... off
 Level Shifting         CNVShift        .... on
   Level shift para.    LevelShift      ....    0.2500
   Turn off err/grad.   ShiftErr        ....    0.0000
 Zerner damping         CNVZerner       .... off
 Static damping         CNVDamp         .... on
   Fraction old density DampFac         ....    0.8500
   Max. Damping (<1)    DampMax         ....    0.9800
   Min. Damping (>=0)   DampMin         ....    0.0000
   Turn off err/grad.   DampErr         ....    0.0300

SCF Procedure:
 Maximum # iterations   MaxIter         ....   125
 SCF integral mode      SCFMode         .... Direct
   Integral package                     .... SHARK and LIBINT hybrid scheme
 Reset frequency        DirectResetFreq ....    20
 Integral Threshold     Thresh          ....  2.500e-11 Eh
 Primitive CutOff       TCut            ....  2.500e-12 Eh

Convergence Tolerance:
 Convergence Check Mode ConvCheckMode   .... Total+1el-Energy
 Convergence forced     ConvForced      .... 0
 Energy Change          TolE            ....  1.000e-08 Eh
 1-El. energy change                    ....  1.000e-05 Eh
 Orbital Gradient       TolG            ....  1.000e-05
 Orbital Rotation angle TolX            ....  1.000e-05
 DIIS Error             TolErr          ....  5.000e-07

------------------------------
INITIAL GUESS: MODEL POTENTIAL
------------------------------
Loading Hartree-Fock densities                     ... done
Calculating cut-offs                               ... done
Initializing the effective Hamiltonian             ... done
Setting up the integral package (SHARK)            ... done
Starting the Coulomb interaction                   ... done (   0.0 sec)
Making the grid                                    ... done (   0.2 sec)
Mapping shells                                     ... done
Starting the XC term evaluation                    ... done (   0.1 sec)
  promolecular density results
     # of electrons  =     60.001128469
     EX              =    -46.034012608
     EC              =     -2.050760257
     EX+EC           =    -48.084772865
Transforming the Hamiltonian                       ... done (   0.0 sec)
Diagonalizing the Hamiltonian                      ... done (   0.0 sec)
Back transforming the eigenvectors                 ... done (   0.0 sec)
Now organizing SCF variables                       ... done
                      ------------------
                      INITIAL GUESS DONE (   0.3 sec)
                      ------------------
             **** ENERGY FILE WAS UPDATED (cuboctahedron_nn1.70_perturb0.en.tmp) ****
Finished Guess after   0.8 sec
Maximum memory used throughout the entire GUESS-calculation: 9.8 MB


           ************************************************************
           *        Program running with 8 parallel MPI-processes     *
           *              working on a common directory               *
           ************************************************************

-------------------------------------------------------------------------------------------
                                      ORCA LEAN-SCF
                              memory conserving SCF solver
-------------------------------------------------------------------------------------------

----------------------------------------D-I-I-S--------------------------------------------
Iteration    Energy (Eh)           Delta-E    RMSDP     MaxDP     DIISErr   Damp  Time(sec)
-------------------------------------------------------------------------------------------
               ***  Starting incremental Fock matrix formation  ***
    1    -296.4946772276041997     0.00e+00  5.96e-02  1.26e+00  1.97e-01  0.850   0.5
Warning: op=0 Small HOMO/LUMO gap (  -0.044) - skipping pre-diagonalization
         Will do a full diagonalization
    2    -296.8056289268994874    -3.11e-01  5.49e-02  9.69e-01  1.33e-01  0.850   0.5
                               ***Turning on AO-DIIS***
    3    -296.9281753195804754    -1.23e-01  4.49e-02  1.03e+00  7.69e-02  0.850   0.4
    4    -296.9926634815491866    -6.45e-02  3.28e-02  8.02e-01  4.91e-02  0.850   0.4
    5    -297.0444858681041183    -5.18e-02  2.49e-02  6.35e-01  3.40e-02  0.850   0.5
    6    -297.0857595392238295    -4.13e-02  1.97e-02  5.09e-01  2.58e-02  0.850   0.3
    7    -297.1193466042570321    -3.36e-02  1.10e-01  2.89e+00  2.09e-02  0.000   0.3
    8    -297.3019302133630504    -1.83e-01  7.47e-03  5.43e-02  8.82e-03  0.000   0.3
    9    -297.3034124572855603    -1.48e-03  3.13e-03  3.05e-02  5.18e-03  0.000   0.4
   10    -297.3041282497773068    -7.16e-04  1.84e-03  1.58e-02  2.91e-03  0.000   0.4
   11    -297.3045314533961232    -4.03e-04  1.65e-03  2.17e-02  1.70e-03  0.000   0.3
   12    -297.3047762104734488    -2.45e-04  1.57e-03  2.53e-02  1.19e-03  0.000   0.3
   13    -297.3049048833657366    -1.29e-04  8.75e-04  6.37e-03  1.34e-03  0.000   0.5
                              *** Initializing SOSCF ***
---------------------------------------S-O-S-C-F--------------------------------------
Iteration    Energy (Eh)           Delta-E    RMSDP     MaxDP     MaxGrad    Time(sec)
--------------------------------------------------------------------------------------
   14    -297.3050252664881441    -1.20e-04  6.19e-04  3.42e-03  6.99e-04     0.3
               *** Restarting incremental Fock matrix formation ***
   15    -297.3051020132641611    -7.67e-05  1.40e-03  1.03e-02  1.25e-03     0.4
   16    -297.3051683211907061    -6.63e-05  3.33e-03  3.19e-02  1.67e-03     0.4
   17    -297.3052622481417870    -9.39e-05  9.66e-04  1.14e-02  1.03e-03     0.4
   18    -297.3052465531337134     1.57e-05  9.72e-04  1.34e-02  1.38e-03     0.4
   19    -297.3052899178142638    -4.34e-05  8.09e-04  8.45e-03  3.74e-04     0.4
   20    -297.3053012272181945    -1.13e-05  3.85e-04  2.28e-03  3.02e-04     0.3
   21    -297.3053073402410860    -6.11e-06  3.16e-04  3.27e-03  2.31e-04     0.3
   22    -297.3053089694030291    -1.63e-06  4.36e-04  2.70e-03  2.68e-04     0.3
   23    -297.3053114545454605    -2.49e-06  3.85e-04  4.71e-03  2.33e-04     0.3
   24    -297.3053162290576097    -4.77e-06  4.04e-04  2.03e-03  1.18e-04     0.3
   25    -297.3053176312325263    -1.40e-06  2.74e-04  1.58e-03  1.27e-04     0.3
   26    -297.3053188352901657    -1.20e-06  1.39e-04  2.10e-03  3.20e-05     0.4
   27    -297.3053189860257248    -1.51e-07  7.78e-05  1.46e-03  3.86e-05     0.5
   28    -297.3053191259709251    -1.40e-07  5.34e-05  5.00e-04  2.43e-05     0.4
   29    -297.3053191670600768    -4.11e-08  4.79e-05  3.67e-04  1.13e-05     0.3
   30    -297.3053191835984421    -1.65e-08  1.51e-05  1.42e-04  7.09e-06     0.3
   31    -297.3053191881621728    -4.56e-09  1.78e-05  2.11e-04  2.69e-06     0.3
                 **** Energy Check signals convergence ****

               *****************************************************
               *                     SUCCESS                       *
               *           SCF CONVERGED AFTER  31 CYCLES          *
               *****************************************************

             **** ENERGY FILE WAS UPDATED (cuboctahedron_nn1.70_perturb0.en.tmp) ****

----------------
TOTAL SCF ENERGY
----------------

Total Energy       :       -297.30531918934906 Eh           -8090.08903 eV

Components:
Nuclear Repulsion  :        381.48160534567086 Eh           10380.64222 eV
Electronic Energy  :       -678.78692453501992 Eh          -18470.73125 eV
One Electron Energy:      -1149.99522112140198 Eh          -31292.96087 eV
Two Electron Energy:        471.20829658638206 Eh           12822.22962 eV

Virial components:
Potential Energy   :       -590.67204484342346 Eh          -16073.00348 eV
Kinetic Energy     :        293.36672565407446 Eh            7982.91445 eV
Virial Ratio       :          2.01342549509149

DFT components:
N(Alpha)           :       29.999813906959 electrons
N(Beta)            :       29.999813906959 electrons
N(Total)           :       59.999627813919 electrons
E(X)               :      -46.386767187560 Eh       
E(C)               :       -2.079306637666 Eh       
E(XC)              :      -48.466073825226 Eh       

---------------
SCF CONVERGENCE
---------------

  Last Energy change         ...    4.5637e-09  Tolerance :   1.0000e-08
  Last MAX-Density change    ...    2.1123e-04  Tolerance :   1.0000e-07
  Last RMS-Density change    ...    1.7781e-05  Tolerance :   5.0000e-09
  Last DIIS Error            ...    6.9874e-04  Tolerance :   5.0000e-07
  Last Orbital Gradient      ...    2.6852e-06  Tolerance :   1.0000e-05
  Last Orbital Rotation      ...    3.4332e-05  Tolerance :   1.0000e-05


----------------
ORBITAL ENERGIES
----------------

  NO   OCC          E(Eh)            E(eV) 
   0   2.0000      -6.627100      -180.3326 
   1   2.0000      -6.614201      -179.9816 
   2   2.0000      -6.609804      -179.8619 
   3   2.0000      -6.608525      -179.8271 
   4   2.0000      -6.600012      -179.5955 
   5   2.0000      -6.599660      -179.5859 
   6   2.0000      -6.597655      -179.5313 
   7   2.0000      -6.596212      -179.4921 
   8   2.0000      -6.586752      -179.2346 
   9   2.0000      -6.580219      -179.0569 
  10   2.0000      -6.576965      -178.9683 
  11   2.0000      -6.548778      -178.2013 
  12   2.0000      -0.745143       -20.2764 
  13   2.0000      -0.622473       -16.9383 
  14   2.0000      -0.600504       -16.3405 
  15   2.0000      -0.576047       -15.6750 
  16   2.0000      -0.485799       -13.2193 
  17   2.0000      -0.451382       -12.2827 
  18   2.0000      -0.443842       -12.0776 
  19   2.0000      -0.432447       -11.7675 
  20   2.0000      -0.391184       -10.6447 
  21   2.0000      -0.382543       -10.4095 
  22   2.0000      -0.345921        -9.4130 
  23   2.0000      -0.306292        -8.3346 
  24   2.0000      -0.289587        -7.8801 
  25   2.0000      -0.258397        -7.0313 
  26   2.0000      -0.244082        -6.6418 
  27   2.0000      -0.231769        -6.3068 
  28   2.0000      -0.213205        -5.8016 
  29   2.0000      -0.193438        -5.2637 
  30   0.0000      -0.192024        -5.2252 
  31   0.0000      -0.180427        -4.9097 
  32   0.0000      -0.159527        -4.3410 
  33   0.0000      -0.150188        -4.0868 
  34   0.0000      -0.126792        -3.4502 
  35   0.0000      -0.116893        -3.1808 
  36   0.0000      -0.100997        -2.7483 
  37   0.0000      -0.087577        -2.3831 
  38   0.0000      -0.069205        -1.8832 
  39   0.0000      -0.060428        -1.6443 
  40   0.0000       0.023203         0.6314 
*Only the first 10 virtual orbitals were printed.

                    ********************************
                    * MULLIKEN POPULATION ANALYSIS *
                    ********************************

-----------------------
MULLIKEN ATOMIC CHARGES
-----------------------
   0 B :   -0.329669
   1 B :   -0.278584
   2 B :    0.856271
   3 B :   -0.434704
   4 B :   -0.291049
   5 B :    0.472645
   6 B :   -0.209566
   7 B :   -0.160122
   8 B :    0.233372
   9 B :   -0.234829
  10 B :    0.204431
  11 B :    0.171804
Sum of atomic charges:    0.0000000

--------------------------------
MULLIKEN REDUCED ORBITAL CHARGES
--------------------------------
  0 B s       :     2.946832  s :     2.946832
      pz      :     0.709020  p :     2.315961
      px      :     0.806267
      py      :     0.800674
      dz2     :     0.014680  d :     0.066875
      dxz     :     0.012316
      dyz     :     0.011546
      dx2y2   :     0.015524
      dxy     :     0.012809

  1 B s       :     2.928712  s :     2.928712
      pz      :     0.694320  p :     2.285724
      px      :     0.752566
      py      :     0.838839
      dz2     :     0.015683  d :     0.064148
      dxz     :     0.012581
      dyz     :     0.012386
      dx2y2   :     0.014865
      dxy     :     0.008634

  2 B s       :     1.623341  s :     1.623341
      pz      :     0.833646  p :     2.430930
      px      :     0.790365
      py      :     0.806919
      dz2     :     0.021367  d :     0.089457
      dxz     :     0.018237
      dyz     :     0.018640
      dx2y2   :     0.017098
      dxy     :     0.014115

  3 B s       :     3.393234  s :     3.393234
      pz      :     0.688108  p :     1.983466
      px      :     0.661367
      py      :     0.633991
      dz2     :     0.015012  d :     0.058004
      dxz     :     0.009214
      dyz     :     0.010111
      dx2y2   :     0.013027
      dxy     :     0.010639

  4 B s       :     3.405482  s :     3.405482
      pz      :     0.633242  p :     1.824180
      px      :     0.474108
      py      :     0.716831
      dz2     :     0.015035  d :     0.061386
      dxz     :     0.012564
      dyz     :     0.009466
      dx2y2   :     0.013496
      dxy     :     0.010825

  5 B s       :     2.372536  s :     2.372536
      pz      :     0.789263  p :     2.088900
      px      :     0.639460
      py      :     0.660176
      dz2     :     0.014620  d :     0.065919
      dxz     :     0.011748
      dyz     :     0.013799
      dx2y2   :     0.013374
      dxy     :     0.012376

  6 B s       :     3.175447  s :     3.175447
      pz      :     0.642136  p :     1.986578
      px      :     0.648085
      py      :     0.696356
      dz2     :     0.011504  d :     0.047542
      dxz     :     0.007367
      dyz     :     0.008206
      dx2y2   :     0.011024
      dxy     :     0.009441

  7 B s       :     3.102570  s :     3.102570
      pz      :     0.632719  p :     2.002571
      px      :     0.667993
      py      :     0.701859
      dz2     :     0.013699  d :     0.054982
      dxz     :     0.010690
      dyz     :     0.009024
      dx2y2   :     0.012982
      dxy     :     0.008587

  8 B s       :     2.762122  s :     2.762122
      pz      :     0.728283  p :     1.937366
      px      :     0.589332
      py      :     0.619752
      dz2     :     0.014203  d :     0.067139
      dxz     :     0.013387
      dyz     :     0.013985
      dx2y2   :     0.013984
      dxy     :     0.011580

  9 B s       :     3.027653  s :     3.027653
      pz      :     0.658396  p :     2.151174
      px      :     0.694865
      py      :     0.797914
      dz2     :     0.012414  d :     0.056002
      dxz     :     0.009337
      dyz     :     0.009452
      dx2y2   :     0.014511
      dxy     :     0.010287

 10 B s       :     2.462850  s :     2.462850
      pz      :     0.718568  p :     2.276151
      px      :     0.757345
      py      :     0.800238
      dz2     :     0.013217  d :     0.056567
      dxz     :     0.010611
      dyz     :     0.010600
      dx2y2   :     0.015116
      dxy     :     0.007023

 11 B s       :     2.877347  s :     2.877347
      pz      :     0.725832  p :     1.894291
      px      :     0.558057
      py      :     0.610402
      dz2     :     0.012853  d :     0.056557
      dxz     :     0.010550
      dyz     :     0.011989
      dx2y2   :     0.011805
      dxy     :     0.009360



                     *******************************
                     * LOEWDIN POPULATION ANALYSIS *
                     *******************************

----------------------
LOEWDIN ATOMIC CHARGES
----------------------
   0 B :   -0.004542
   1 B :    0.003066
   2 B :   -0.139496
   3 B :    0.054026
   4 B :   -0.010522
   5 B :   -0.014563
   6 B :    0.058150
   7 B :   -0.031706
   8 B :    0.018496
   9 B :    0.045425
  10 B :   -0.021096
  11 B :    0.042760

-------------------------------
LOEWDIN REDUCED ORBITAL CHARGES
-------------------------------
  0 B s       :     2.612021  s :     2.612021
      pz      :     0.680502  p :     2.220267
      px      :     0.801850
      py      :     0.737915
      dz2     :     0.037417  d :     0.172254
      dxz     :     0.033659
      dyz     :     0.021892
      dx2y2   :     0.040085
      dxy     :     0.039200

  1 B s       :     2.579719  s :     2.579719
      pz      :     0.708012  p :     2.259126
      px      :     0.712928
      py      :     0.838185
      dz2     :     0.041011  d :     0.158089
      dxz     :     0.024380
      dyz     :     0.031745
      dx2y2   :     0.033722
      dxy     :     0.027230

  2 B s       :     2.562410  s :     2.562410
      pz      :     0.938824  p :     2.337879
      px      :     0.701596
      py      :     0.697459
      dz2     :     0.063984  d :     0.239206
      dxz     :     0.051413
      dyz     :     0.050747
      dx2y2   :     0.041177
      dxy     :     0.031886

  3 B s       :     2.702275  s :     2.702275
      pz      :     0.722545  p :     2.111562
      px      :     0.713328
      py      :     0.675688
      dz2     :     0.033887  d :     0.132137
      dxz     :     0.024705
      dyz     :     0.017830
      dx2y2   :     0.024850
      dxy     :     0.030865

  4 B s       :     2.757434  s :     2.757434
      pz      :     0.721969  p :     2.107936
      px      :     0.617600
      py      :     0.768368
      dz2     :     0.036229  d :     0.145151
      dxz     :     0.023377
      dyz     :     0.025231
      dx2y2   :     0.028054
      dxy     :     0.032260

  5 B s       :     2.641009  s :     2.641009
      pz      :     0.846871  p :     2.217159
      px      :     0.691508
      py      :     0.678780
      dz2     :     0.032677  d :     0.156396
      dxz     :     0.034217
      dyz     :     0.036220
      dx2y2   :     0.032886
      dxy     :     0.020395

  6 B s       :     2.754836  s :     2.754836
      pz      :     0.646051  p :     2.082858
      px      :     0.717384
      py      :     0.719423
      dz2     :     0.022864  d :     0.104155
      dxz     :     0.023496
      dyz     :     0.012340
      dx2y2   :     0.021050
      dxy     :     0.024405

  7 B s       :     2.777564  s :     2.777564
      pz      :     0.667093  p :     2.125009
      px      :     0.691204
      py      :     0.766712
      dz2     :     0.031610  d :     0.129133
      dxz     :     0.017776
      dyz     :     0.028010
      dx2y2   :     0.028835
      dxy     :     0.022903

  8 B s       :     2.657806  s :     2.657806
      pz      :     0.802901  p :     2.165389
      px      :     0.641261
      py      :     0.721227
      dz2     :     0.031217  d :     0.158309
      dxz     :     0.036620
      dyz     :     0.039164
      dx2y2   :     0.031250
      dxy     :     0.020057

  9 B s       :     2.705975  s :     2.705975
      pz      :     0.613070  p :     2.117569
      px      :     0.735871
      py      :     0.768629
      dz2     :     0.026048  d :     0.131030
      dxz     :     0.027572
      dyz     :     0.015098
      dx2y2   :     0.032391
      dxy     :     0.029922

 10 B s       :     2.644562  s :     2.644562
      pz      :     0.644517  p :     2.252293
      px      :     0.761683
      py      :     0.846094
      dz2     :     0.029633  d :     0.124241
      dxz     :     0.017940
      dyz     :     0.026941
      dx2y2   :     0.030860
      dxy     :     0.018867

 11 B s       :     2.715426  s :     2.715426
      pz      :     0.792197  p :     2.109666
      px      :     0.634933
      py      :     0.682537
      dz2     :     0.023793  d :     0.132147
      dxz     :     0.033379
      dyz     :     0.033834
      dx2y2   :     0.026087
      dxy     :     0.015054



                      *****************************
                      * MAYER POPULATION ANALYSIS *
                      *****************************

  NA   - Mulliken gross atomic population
  ZA   - Total nuclear charge
  QA   - Mulliken gross atomic charge
  VA   - Mayer's total valence
  BVA  - Mayer's bonded valence
  FA   - Mayer's free valence

  ATOM       NA         ZA         QA         VA         BVA        FA
  0 B      5.3297     5.0000    -0.3297     4.7154     4.7154     0.0000
  1 B      5.2786     5.0000    -0.2786     4.6339     4.6339     0.0000
  2 B      4.1437     5.0000     0.8563     2.3041     2.3041    -0.0000
  3 B      5.4347     5.0000    -0.4347     3.9388     3.9388    -0.0000
  4 B      5.2910     5.0000    -0.2910     3.5322     3.5322    -0.0000
  5 B      4.5274     5.0000     0.4726     3.4089     3.4089    -0.0000
  6 B      5.2096     5.0000    -0.2096     3.9370     3.9370     0.0000
  7 B      5.1601     5.0000    -0.1601     3.7322     3.7322     0.0000
  8 B      4.7666     5.0000     0.2334     3.4849     3.4849     0.0000
  9 B      5.2348     5.0000    -0.2348     4.0481     4.0481    -0.0000
 10 B      4.7956     5.0000     0.2044     3.8541     3.8541    -0.0000
 11 B      4.8282     5.0000     0.1718     3.5999     3.5999    -0.0000

  Mayer bond orders larger than 0.100000
B(  0-B ,  1-B ) :   1.3919 B(  0-B ,  2-B ) :   0.4451 B(  0-B ,  3-B ) :   0.5323 
B(  0-B ,  4-B ) :   0.3621 B(  0-B ,  5-B ) :   0.1911 B(  0-B ,  6-B ) :   0.2548 
B(  0-B ,  7-B ) :   0.7043 B(  0-B ,  8-B ) :   0.7356 B(  1-B ,  2-B ) :   0.4440 
B(  1-B ,  3-B ) :   0.2964 B(  1-B ,  4-B ) :   0.5511 B(  1-B ,  5-B ) :   0.6493 
B(  1-B ,  6-B ) :   0.8145 B(  1-B ,  7-B ) :   0.1870 B(  1-B , 10-B ) :   0.2055 
B(  2-B ,  3-B ) :   0.1502 B(  2-B ,  5-B ) :   0.1448 B(  2-B ,  6-B ) :   0.1370 
B(  2-B ,  7-B ) :   0.1497 B(  2-B ,  8-B ) :   0.1281 B(  2-B ,  9-B ) :   0.1445 
B(  2-B , 10-B ) :   0.2590 B(  2-B , 11-B ) :   0.2125 B(  3-B ,  4-B ) :   0.8923 
B(  3-B ,  6-B ) :   0.2284 B(  3-B ,  7-B ) :   0.1569 B(  3-B ,  8-B ) :   0.3707 
B(  3-B ,  9-B ) :   0.3549 B(  3-B , 10-B ) :   0.7144 B(  3-B , 11-B ) :   0.1502 
B(  4-B ,  5-B ) :   0.5448 B(  4-B ,  6-B ) :   0.1627 B(  4-B ,  7-B ) :   0.2459 
B(  4-B ,  9-B ) :   0.5816 B(  5-B ,  6-B ) :   0.4744 B(  5-B ,  7-B ) :   0.1144 
B(  5-B ,  8-B ) :   0.1564 B(  5-B ,  9-B ) :   0.8168 B(  5-B , 10-B ) :   0.1139 
B(  5-B , 11-B ) :   0.1109 B(  6-B ,  7-B ) :   0.5561 B(  6-B ,  9-B ) :   0.2709 
B(  6-B , 11-B ) :   0.9127 B(  7-B ,  8-B ) :   0.8209 B(  7-B ,  9-B ) :   0.1472 
B(  7-B , 10-B ) :   0.1358 B(  7-B , 11-B ) :   0.5138 B(  8-B ,  9-B ) :   0.2160 
B(  8-B , 10-B ) :   0.7212 B(  8-B , 11-B ) :   0.2728 B(  9-B , 10-B ) :   0.7388 
B(  9-B , 11-B ) :   0.6211 B( 10-B , 11-B ) :   0.7852 

-------
TIMINGS
-------

Total SCF time: 0 days 0 hours 0 min 12 sec 

Total time                  ....      12.556 sec
Sum of individual times     ....      12.113 sec  ( 96.5%)

SCF preparation             ....       0.581 sec  (  4.6%)
Fock matrix formation       ....      10.311 sec  ( 82.1%)
  Startup                   ....       0.018 sec  (  0.2% of F)
  Split-RI-J                ....       3.345 sec  ( 32.4% of F)
  XC integration            ....       6.733 sec  ( 65.3% of F)
    XC Preparation          ....       0.000 sec  (  0.0% of XC)
    Basis function eval.    ....       1.614 sec  ( 24.0% of XC)
    Density eval.           ....       1.285 sec  ( 19.1% of XC)
    XC-Functional eval.     ....       0.182 sec  (  2.7% of XC)
    XC-Potential eval.      ....       1.721 sec  ( 25.6% of XC)
Diagonalization             ....       0.000 sec  (  0.0%)
Density matrix formation    ....       0.207 sec  (  1.6%)
Total Energy calculation    ....       0.091 sec  (  0.7%)
Population analysis         ....       0.040 sec  (  0.3%)
Orbital Transformation      ....       0.042 sec  (  0.3%)
Orbital Orthonormalization  ....       0.000 sec  (  0.0%)
DIIS solution               ....       0.425 sec  (  3.4%)
SOSCF solution              ....       0.416 sec  (  3.3%)
Finished LeanSCF after  12.6 sec

Maximum memory used throughout the entire LEANSCF-calculation: 10.3 MB


-------------------------------------------------------------------------------
                          DFT DISPERSION CORRECTION                            
                                                                               
                              DFTD3 V3.1  Rev 1                                
                          USING Becke-Johnson damping                          
-------------------------------------------------------------------------------
The BP86 functional is recognized
Active option DFTDOPT                   ...         4   

molecular C6(AA) [au] = 4206.090970 


            DFT-D V3
 parameters
 s6 scaling factor         :     1.0000 
 a1 scaling factor         :     0.3946 
 s8 scaling factor         :     3.2822 
 a2 scaling factor         :     4.8516 
 ad hoc parameters k1-k3   :    16.0000     1.3333    -4.0000 

 Edisp/kcal,au: -24.304196661320  -0.038731198609 
 E6   /kcal   :  -6.904568598 
 E8   /kcal   : -17.399628063 
 % E8         :  71.591043744 

-------------------------   ----------------
Dispersion correction           -0.038731199
-------------------------   ----------------


-------------------------   --------------------
FINAL SINGLE POINT ENERGY      -297.344050387958
-------------------------   --------------------



           ************************************************************
           *        Program running with 8 parallel MPI-processes     *
           *              working on a common directory               *
           ************************************************************
------------------------------------------------------------------------------
                         ORCA SCF GRADIENT CALCULATION
------------------------------------------------------------------------------

Nuc. rep. gradient        (SHARK) ... done (  0.0 sec)
HCore & Overlap gradient  (SHARK) ... done (  0.1 sec)
Split-RIJ-J gradient      (SHARK) ... done (  0.4 sec)
XC gradient                       ... done (  1.0 sec)
Dispersion correction             ... done (  0.1 sec)

-------------------
DISPERSION GRADIENT
-------------------

   1   B   :    0.000349061   -0.000103852   -0.000048598
   2   B   :   -0.000195009    0.000049562   -0.000071650
   3   B   :    0.000151689   -0.000188287    0.000040225
   4   B   :    0.000913180    0.000352184   -0.000799560
   5   B   :    0.000408171    0.000220096    0.000251550
   6   B   :   -0.000050428    0.000286935    0.000211943
   7   B   :    0.000736690   -0.000239591    0.000186491
   8   B   :   -0.000462209    0.000925827    0.000506506
   9   B   :   -0.001256947    0.000365808    0.001143798
  10   B   :    0.000367035   -0.000542976   -0.001128690
  11   B   :    0.000136406   -0.000088264   -0.000457568
  12   B   :   -0.001097639   -0.001037443    0.000165552

Difference to translation invariance:
           :   -0.0000000000    0.0000000000    0.0000000000

Difference to rotation invariance:
           :    0.0000000000   -0.0000000000    0.0000000000

Norm of the Dispersion gradient    ...    0.0033879235
RMS gradient                       ...    0.0005646539
MAX gradient                       ...    0.0012569469

------------------
CARTESIAN GRADIENT
------------------

   1   B   :   -0.077558281   -0.000445018    0.086882116
   2   B   :   -0.011784772   -0.094214411    0.095017991
   3   B   :    0.075461067    0.101629407   -0.104421570
   4   B   :   -0.016744523   -0.043687496   -0.026379943
   5   B   :   -0.021122559    0.027868735   -0.049094255
   6   B   :   -0.044863149   -0.047037643    0.012249871
   7   B   :   -0.008929400    0.051129834   -0.031312370
   8   B   :    0.035422044   -0.075124257    0.049068473
   9   B   :    0.019432727    0.034880835   -0.075124631
  10   B   :    0.020556718    0.015850595    0.024948793
  11   B   :   -0.002489868    0.014388108    0.004353195
  12   B   :    0.032619996    0.014761311    0.013812330

Difference to translation invariance:
           :    0.0000000000    0.0000000000   -0.0000000000

Difference to rotation invariance:
           :    0.0008368934   -0.0010196982   -0.0009468385

Norm of the Cartesian gradient     ...    0.3043803575
RMS gradient                       ...    0.0507300596
MAX gradient                       ...    0.1044215700

-------
TIMINGS
-------

Total SCF gradient time     ....        1.502 sec

Densities                   ....       0.001 sec  (  0.1%)
One electron gradient       ....       0.082 sec  (  5.5%)
RI-J Coulomb gradient       ....       0.380 sec  ( 25.3%)
XC gradient                 ....       0.968 sec  ( 64.5%)

Maximum memory used throughout the entire SCFGRAD-calculation: 29.8 MB
------------------------------------------------------------------------------
                         ORCA GEOMETRY RELAXATION STEP
------------------------------------------------------------------------------

Reading the OPT-File                    .... done
Getting information on internals        .... done
Copying old internal coords+grads       .... done
Making the new internal coordinates     .... (2022 redundants) done
Validating the new internal coordinates .... (2022 redundants) done
Calculating the B-matrix                .... done
Calculating the G,G- and P matrices     .... done
Transforming gradient to internals      .... done
Projecting the internal gradient        .... done
Number of atoms                         ....  12
Number of internal coordinates          .... 240
Current Energy                          ....  -297.344050388 Eh
Current gradient norm                   ....     0.304380357 Eh/bohr
Maximum allowed component of the step   ....  0.300
Current trust radius                    ....  0.300
Evaluating the initial hessian          ....  (Almloef) done
Projecting the Hessian                  .... done
Forming the augmented Hessian           .... done
Diagonalizing the augmented Hessian     .... done
Last element of RFO vector              ....  0.912697955
Lowest eigenvalues of augmented Hessian:
 -0.060815924  0.027780380  0.050613863  0.052728147  0.058658505
Length of the computed step             ....  0.447721890
Warning: the length of the step is outside the trust region - taking restricted step instead
The input lambda is                     ....     0.026692
   iter:   5  x=    0.012508  g=   74.358257 f(x)=     0.624784
   iter:  10  x=   -0.195221  g=    0.441661 f(x)=     0.003514
The output lambda is                    ....    -0.195474 (14 iterations)
The final length of the internal step   ....  0.300000000
Converting the step to Cartesian space:
 Initial RMS(Int)=    0.0193649167
Transforming coordinates:
 Iter   0:  RMS(Cart)=    0.0265694888 RMS(Int)=    0.0193263011
done
Storing new coordinates                 .... done

                                .--------------------.
          ----------------------|Geometry convergence|-------------------------
          Item                value                   Tolerance       Converged
          ---------------------------------------------------------------------
          RMS gradient        0.0096558173            0.0001000000      NO
          MAX gradient        0.0646349652            0.0003000000      NO
          RMS step            0.0193649167            0.0020000000      NO
          MAX step            0.1001812642            0.0040000000      NO
          -------------------------------------------------------------------------
          ........................................................
          Max(Bonds)      0.0530      Max(Angles)    1.88
          Max(Dihed)        1.90      Max(Improp)    0.00
          ---------------------------------------------------------------------

The optimization has not yet converged - more geometry cycles are needed


    ---------------------------------------------------------------------------
                         Redundant Internal Coordinates
                            (Angstroem and degrees)

        Definition                    Value    dE/dq     Step     New-Value
    ----------------------------------------------------------------------------
     1. B(B   1,B   0)                1.6605 -0.033749  0.0190    1.6795   
     2. B(B   2,B   1)                1.4417 -0.064635  0.0530    1.4947   
     3. B(B   2,B   0)                1.4417 -0.048824  0.0403    1.4820   
[...]
      dz2     :     0.020281  d :     0.092853
      dxz     :     0.019707
      dyz     :     0.019633
      dx2y2   :     0.016739
      dxy     :     0.016494

  9 B s       :     2.622265  s :     2.622265
      pz      :     0.657021  p :     2.210255
      px      :     0.875423
      py      :     0.677812
      dz2     :     0.019893  d :     0.088467
      dxz     :     0.016342
      dyz     :     0.015900
      dx2y2   :     0.020065
      dxy     :     0.016267

 10 B s       :     3.125670  s :     3.125670
      pz      :     0.611509  p :     1.900042
      px      :     0.614786
      py      :     0.673747
      dz2     :     0.015987  d :     0.064057
      dxz     :     0.015728
      dyz     :     0.011080
      dx2y2   :     0.011081
      dxy     :     0.010181

 11 B s       :     3.113264  s :     3.113264
      pz      :     0.817377  p :     1.948569
      px      :     0.569937
      py      :     0.561255
      dz2     :     0.011021  d :     0.063871
      dxz     :     0.015036
      dyz     :     0.012307
      dx2y2   :     0.013050
      dxy     :     0.012457



                     *******************************
                     * LOEWDIN POPULATION ANALYSIS *
                     *******************************

----------------------
LOEWDIN ATOMIC CHARGES
----------------------
   0 B :   -0.082259
   1 B :    0.062338
   2 B :   -0.011782
   3 B :   -0.020199
   4 B :   -0.020043
   5 B :   -0.032191
   6 B :   -0.019461
   7 B :   -0.013826
   8 B :    0.061142
   9 B :    0.127708
  10 B :   -0.032378
  11 B :   -0.019051

-------------------------------
LOEWDIN REDUCED ORBITAL CHARGES
-------------------------------
  0 B s       :     2.640030  s :     2.640030
      pz      :     0.735635  p :     2.307912
      px      :     0.828457
      py      :     0.743820
      dz2     :     0.037557  d :     0.134317
      dxz     :     0.023225
      dyz     :     0.025555
      dx2y2   :     0.025006
      dxy     :     0.022973

  1 B s       :     2.575597  s :     2.575597
      pz      :     0.648803  p :     2.124208
      px      :     0.670436
      py      :     0.804969
      dz2     :     0.043403  d :     0.237857
      dxz     :     0.036821
      dyz     :     0.051607
      dx2y2   :     0.055276
      dxy     :     0.050749

  2 B s       :     2.593327  s :     2.593327
      pz      :     0.827670  p :     2.227609
      px      :     0.738145
      py      :     0.661794
      dz2     :     0.044301  d :     0.190846
      dxz     :     0.039999
      dyz     :     0.041863
      dx2y2   :     0.033940
      dxy     :     0.030744

  3 B s       :     2.694365  s :     2.694365
      pz      :     0.699430  p :     2.163195
      px      :     0.746818
      py      :     0.716946
      dz2     :     0.035321  d :     0.162638
      dxz     :     0.036829
      dyz     :     0.026392
      dx2y2   :     0.039910
      dxy     :     0.024187

  4 B s       :     2.694738  s :     2.694738
      pz      :     0.626927  p :     2.162794
      px      :     0.686870
      py      :     0.848997
      dz2     :     0.025627  d :     0.162510
      dxz     :     0.029651
      dyz     :     0.033508
      dx2y2   :     0.029727
      dxy     :     0.043997

  5 B s       :     2.692800  s :     2.692800
      pz      :     0.714472  p :     2.186954
      px      :     0.732560
      py      :     0.739922
      dz2     :     0.020073  d :     0.152437
      dxz     :     0.031216
      dyz     :     0.027547
      dx2y2   :     0.043279
      dxy     :     0.030322

  6 B s       :     2.696845  s :     2.696845
      pz      :     0.705584  p :     2.160504
      px      :     0.771788
      py      :     0.683132
      dz2     :     0.035852  d :     0.162112
      dxz     :     0.023953
      dyz     :     0.026557
      dx2y2   :     0.038447
      dxy     :     0.037302

  7 B s       :     2.594543  s :     2.594543
      pz      :     0.681112  p :     2.228666
      px      :     0.725759
      py      :     0.821795
      dz2     :     0.034969  d :     0.190616
      dxz     :     0.028343
      dyz     :     0.042145
      dx2y2   :     0.043012
      dxy     :     0.042147

  8 B s       :     2.575466  s :     2.575466
      pz      :     0.815529  p :     2.125079
      px      :     0.650483
      py      :     0.659067
      dz2     :     0.056174  d :     0.238313
      dxz     :     0.051100
      dyz     :     0.053410
      dx2y2   :     0.040847
      dxy     :     0.036781

  9 B s       :     2.587962  s :     2.587962
      pz      :     0.612817  p :     2.074367
      px      :     0.833596
      py      :     0.627955
      dz2     :     0.045410  d :     0.209963
      dxz     :     0.038433
      dyz     :     0.034316
      dx2y2   :     0.053435
      dxy     :     0.038370

 10 B s       :     2.692621  s :     2.692621
      pz      :     0.720945  p :     2.187333
      px      :     0.731776
      py      :     0.734612
      dz2     :     0.037983  d :     0.152424
      dxz     :     0.030009
      dyz     :     0.029697
      dx2y2   :     0.026838
      dxy     :     0.027897

 11 B s       :     2.696712  s :     2.696712
      pz      :     0.856220  p :     2.160284
      px      :     0.681190
      py      :     0.622874
      dz2     :     0.027811  d :     0.162055
      dxz     :     0.041500
      dyz     :     0.034794
      dx2y2   :     0.031742
      dxy     :     0.026209



                      *****************************
                      * MAYER POPULATION ANALYSIS *
                      *****************************

  NA   - Mulliken gross atomic population
  ZA   - Total nuclear charge
  QA   - Mulliken gross atomic charge
  VA   - Mayer's total valence
  BVA  - Mayer's bonded valence
  FA   - Mayer's free valence

  ATOM       NA         ZA         QA         VA         BVA        FA
  0 B      5.1213     5.0000    -0.1213     3.9593     3.9593    -0.0000
  1 B      4.8093     5.0000     0.1907     3.6162     3.6162    -0.0000
  2 B      4.8342     5.0000     0.1658     4.0474     4.0474    -0.0000
  3 B      5.1231     5.0000    -0.1231     3.6894     3.6894    -0.0000
  4 B      5.1231     5.0000    -0.1231     3.6864     3.6864     0.0000
  5 B      5.0896     5.0000    -0.0896     3.6260     3.6260     0.0000
  6 B      5.1252     5.0000    -0.1252     3.6816     3.6816     0.0000
  7 B      4.8318     5.0000     0.1682     4.0421     4.0421     0.0000
  8 B      4.8060     5.0000     0.1940     3.6113     3.6113    -0.0000
  9 B      4.9210     5.0000     0.0790     3.4446     3.4446    -0.0000
 10 B      5.0898     5.0000    -0.0898     3.6262     3.6262     0.0000
 11 B      5.1257     5.0000    -0.1257     3.6835     3.6835     0.0000

  Mayer bond orders larger than 0.100000
B(  0-B ,  1-B ) :   0.7201 B(  0-B ,  2-B ) :   0.8001 B(  0-B ,  3-B ) :   0.1268 
B(  0-B ,  4-B ) :   0.1262 B(  0-B ,  5-B ) :   0.1788 B(  0-B ,  6-B ) :   0.1236 
B(  0-B ,  7-B ) :   0.8042 B(  0-B ,  8-B ) :   0.7211 B(  0-B , 10-B ) :   0.1786 
B(  0-B , 11-B ) :   0.1246 B(  1-B ,  2-B ) :   0.5292 B(  1-B ,  4-B ) :   0.3315 
B(  1-B ,  5-B ) :   0.5793 B(  1-B ,  6-B ) :   0.3280 B(  1-B ,  7-B ) :   0.5220 
B(  1-B ,  8-B ) :   0.2235 B(  1-B ,  9-B ) :   0.1901 B(  2-B ,  3-B ) :   0.7474 
B(  2-B ,  4-B ) :   0.7452 B(  2-B ,  5-B ) :   0.1214 B(  2-B ,  6-B ) :   0.1820 
B(  2-B ,  7-B ) :   0.1088 B(  2-B ,  8-B ) :   0.5269 B(  2-B , 10-B ) :   0.1220 
B(  2-B , 11-B ) :   0.1820 B(  3-B ,  4-B ) :   0.4064 B(  3-B ,  6-B ) :   0.2415 
B(  3-B ,  7-B ) :   0.1826 B(  3-B ,  8-B ) :   0.3305 B(  3-B ,  9-B ) :   0.4843 
B(  3-B , 10-B ) :   0.9038 B(  3-B , 11-B ) :   0.1476 B(  4-B ,  5-B ) :   0.9025 
B(  4-B ,  6-B ) :   0.1482 B(  4-B ,  7-B ) :   0.1821 B(  4-B ,  9-B ) :   0.4844 
B(  4-B , 11-B ) :   0.2413 B(  5-B ,  6-B ) :   0.9079 B(  5-B ,  7-B ) :   0.1201 
B(  5-B ,  9-B ) :   0.5575 B(  6-B ,  7-B ) :   0.7491 B(  6-B ,  9-B ) :   0.4808 
B(  6-B , 11-B ) :   0.4040 B(  7-B ,  8-B ) :   0.5200 B(  7-B , 10-B ) :   0.1202 
B(  7-B , 11-B ) :   0.7508 B(  8-B ,  9-B ) :   0.1902 B(  8-B , 10-B ) :   0.5788 
B(  8-B , 11-B ) :   0.3271 B(  9-B , 10-B ) :   0.5564 B(  9-B , 11-B ) :   0.4810 
B( 10-B , 11-B ) :   0.9086 

-------
TIMINGS
-------

Total SCF time: 0 days 0 hours 0 min 5 sec 

Total time                  ....       5.625 sec
Sum of individual times     ....       5.190 sec  ( 92.3%)

SCF preparation             ....       0.510 sec  (  9.1%)
Fock matrix formation       ....       3.621 sec  ( 64.4%)
  Startup                   ....       0.021 sec  (  0.6% of F)
  Split-RI-J                ....       1.077 sec  ( 29.7% of F)
  XC integration            ....       2.571 sec  ( 71.0% of F)
    XC Preparation          ....       0.000 sec  (  0.0% of XC)
    Basis function eval.    ....       0.464 sec  ( 18.0% of XC)
    Density eval.           ....       0.378 sec  ( 14.7% of XC)
    XC-Functional eval.     ....       0.053 sec  (  2.1% of XC)
    XC-Potential eval.      ....       0.454 sec  ( 17.7% of XC)
Diagonalization             ....       0.000 sec  (  0.0%)
Density matrix formation    ....       0.084 sec  (  1.5%)
Total Energy calculation    ....       0.149 sec  (  2.7%)
Population analysis         ....       0.135 sec  (  2.4%)
Orbital Transformation      ....       0.014 sec  (  0.3%)
Orbital Orthonormalization  ....       0.000 sec  (  0.0%)
DIIS solution               ....       0.080 sec  (  1.4%)
SOSCF solution              ....       0.598 sec  ( 10.6%)
Finished LeanSCF after   5.8 sec

Maximum memory used throughout the entire LEANSCF-calculation: 11.9 MB


-------------------------------------------------------------------------------
                          DFT DISPERSION CORRECTION                            
                                                                               
                              DFTD3 V3.1  Rev 1                                
                          USING Becke-Johnson damping                          
-------------------------------------------------------------------------------
The BP86 functional is recognized
Active option DFTDOPT                   ...         4   

molecular C6(AA) [au] = 4048.537425 


            DFT-D V3
 parameters
 s6 scaling factor         :     1.0000 
 a1 scaling factor         :     0.3946 
 s8 scaling factor         :     3.2822 
 a2 scaling factor         :     4.8516 
 ad hoc parameters k1-k3   :    16.0000     1.3333    -4.0000 

 Edisp/kcal,au: -23.597195442192  -0.037604520570 
 E6   /kcal   :  -6.715873573 
 E8   /kcal   : -16.881321869 
 % E8         :  71.539526425 

-------------------------   ----------------
Dispersion correction           -0.037604521
-------------------------   ----------------


-------------------------   --------------------
FINAL SINGLE POINT ENERGY      -297.643302866540
-------------------------   --------------------

                                *** OPTIMIZATION RUN DONE ***



           ************************************************************
           *        Program running with 8 parallel MPI-processes     *
           *              working on a common directory               *
           ************************************************************

------------------------------------------------------------------------------
                              ORCA PROPERTY CALCULATIONS
------------------------------------------------------------------------------

GBWName                                 ... cuboctahedron_nn1.70_perturb0.gbw
Number of atoms                         ...     12
Number of basis functions               ...    168
Max core memory                         ...   2500 MB

Electric properties:
Dipole moment                           ... YES
Quadrupole moment                       ...  NO
Static polarizability (Dipole/Dipole)   ...  NO
Static polarizability (Dipole/Quad.)    ...  NO
Static polarizability (Quad./Quad.)     ...  NO
Static polarizability (Velocity)        ...  NO
Static hyperpolarizability              ...  NO

Atomic electric properties:
Dipole moment                           ...  NO
Quadrupole moment                       ...  NO
Static polarizability                   ...  NO

Choice of electric origin               ... Center of mass
Position of electric origin             ...    -0.035362    -0.025699    -0.031341

General magnetic properties:
Magnetizability                         ...  NO

EPR properties:
g-Tensor (aka g-matrix)                 ...  NO
Zero-Field splitting spin-orbit         ...  NO
Zero-field splitting spin-spin          ...  NO
Hyperfine couplings                     ...  NO (   0 nuclei)
Quadrupole couplings                    ...  NO (   0 nuclei)
Contact density                         ...  NO (   0 nuclei)

NMR properties:
Chemical shifts                         ...  NO (   0 nuclei)
Spin-rotation constants                 ...  NO (   0 nuclei)
Spin-spin couplings                     ...  NO (   0 nuclei,    0 pairs)

Choice of magnetic origin               ... GIAO
Position of magnetic origin             ...     0.000000     0.000000     0.000000

Properties with geometric perturbations:
SCF Hessian                             ...  NO
IR spectrum                             ...  NO
VCD spectrum                            ...  NO
X-ray spectroscopy properties:
SCF XES/XAS/RIXS spectra                ...  NO

SCF SOC stabilization energy            ...  NO
Diagonal Born-Oppenheimer correction    ...  NO

-------------
DIPOLE MOMENT
-------------

Method             : SCF
Type of density    : Electron Density
Multiplicity       :   1
Irrep              :   0
Energy             :  -297.6056983459704384 Eh
Basis              : AO
                                X                 Y                 Z
Electronic contribution:     -0.024892352       0.202613738       0.219548532
Nuclear contribution   :     -0.000000000       0.000000000       0.000000000
                        -----------------------------------------
Total Dipole Moment    :     -0.024892352       0.202613738       0.219548532
                        -----------------------------------------
Magnitude (a.u.)       :      0.299789115
Magnitude (Debye)      :      0.762003374



--------------------
Rotational spectrum 
--------------------
 
Rotational constants in cm-1:             0.074089             0.068356             0.066173 
Rotational constants in MHz :          2221.118077          2049.248981          1983.818309 

Dipole components along the rotational axes: 
x,y,z [a.u.] :     0.003316    -0.012635     0.299504 
x,y,z [Debye]:     0.008429    -0.032116     0.761280 

 

Dipole moment calculation done in   0.0 sec 

Maximum memory used throughout the entire PROP-calculation: 9.6 MB

--------------------------------
SUGGESTED CITATIONS FOR THIS RUN
--------------------------------

Below you find a list of papers that are relevant to this ORCA run
We neither can nor want to force you to cite these papers, but we appreciate if you do
You receive ORCA, which is the product of decades of hard work by many enthusiastic individuals, for free
The only thing we kindly ask in return is that you cite our papers,
We deeply appreciate it, if you show your appreciation for ORCA by not just citing the generic ORCA reference.

Please note that relegating all ORCA citations to the supporting information does *not* help us.
SI sections are not indexed - citations you put there will not count into any citation statistics
But we need these citations in order to attract the funding resources that allow us to do what we are doing

Therefore, if you are a happy ORCA user, please consider citing a few of the papers listed below in the main body of your paper

In addition to the list printed below, the program has created the file cuboctahedron_nn1.70_perturb0.bibtex that contains the list in bibtex format
You can import this file easily into all common literature databanks and citation aid programs

It goes without saying that in many instances, there are alternative algorithms to achieve similar
results as the ones you have gotten from ORCA. It is, of course, also the case that in some instances
ORCA just re-implements algorithms worked out by others. We are fully aware of that and we are also
fully appreciative of our colleagues work. Hence this citation list should not be read as indicating
that the listed papers, which are focused on our own work, are the only ones worth citing. It simply
meant to make it easier for users to cite ORCA specific papers. It is not a substitute for doing your
own literature research and citing the relevant literature in a scientifically appropriate manner.

List of essential papers. We consider these as the minimum necessary citations

  1. Neese, F.
     Software update: the ORCA program system, version 6.0
     WIRES Comput. Molec. Sci. 2025 15(1), e70019
     doi.org/10.1002/wcms.70019

List of papers to cite with high priority. The work reported in these papers was absolutely
necessary for this run to complete.
Our perspective: the developers of density functionals and basis sets usually get cited in chemistry papers
Good! But without the algorithms to do something with them, the functionals or basis sets would not do anything.
Hence, in our opinion, the algorithm design and method developments papers are equally worthy of getting cited

  1. Neese, F.
     An improvement of the resolution of the identity approximation for the formation of the Coulomb matrix
     J. Comp. Chem. 2003 24(14), 1740-1747
     doi.org/10.1002/jcc.10318
  2. Grimme, S.; Antony, J.; Ehrlich, S.; Krieg, H.
     A consistent and accurate ab initio parametrization of density functional dispersion correction (DFT-D) for the 94 elements H-Pu
     J. Chem. Phys. 2010 132 , 154104
     doi.org/10.1063/1.3382344
  3. Grimme, S.; Ehrlich, S.; Goerigk, L.
     Effect of the damping function in dispersion corrected density functional theory
     J. Comput. Chem. 2011 32(7), 1456-1465
     doi.org/10.1002/jcc.21759
  4. Neese, F.
     The SHARK Integral Generation and Digestion System
     J. Comp. Chem. 2022 44(3), 381
     doi.org/10.1002/jcc.26942

List of suggested additional citations. These are papers that are important in the 'surrounding' of 
of this run, or papers that preceded the highly important papers. If you like your results we are grateful for a citation.

  1. Neese, F.
     The ORCA program system
     WIRES Comput. Molec. Sci. 2012 2(1), 73-78
     doi.org/10.1002/wcms.81
  2. Neese, F.
     Software update: the ORCA program system, version 4.0
     WIRES Comput. Molec. Sci. 2018 8(1), 1-6
     doi.org/10.1002/wcms.1327
  3. Neese, F.; Wennmohs, F.; Becker, U.; Riplinger, C.
     The ORCA quantum chemistry program package
     J. Chem. Phys. 2020 152(22), 224108
     doi.org/10.1063/5.0004608
  4. Neese, F.
     Software update: The ORCA program system—Version 5.0
     WIRES Comput. Molec. Sci. 2022 12(1), e1606
     doi.org/10.1002/wcms.1606

List of optional additional citations

  1. Neese, F.
     Approximate second-order SCF convergence for spin unrestricted wavefunctions
     Chem. Phys. Lett. 2000 325(1-3), 93-98
     doi.org/10.1016/s0009-2614(00)00662-x

Timings for individual modules:

Sum of individual times          ...      526.388 sec (=   8.773 min)
Startup calculation              ...       64.018 sec (=   1.067 min)  12.2 %
SCF iterations                   ...      365.443 sec (=   6.091 min)  69.4 %
Property calculations            ...        0.709 sec (=   0.012 min)   0.1 %
SCF Gradient evaluation          ...       95.414 sec (=   1.590 min)  18.1 %
Geometry relaxation              ...        0.805 sec (=   0.013 min)   0.2 %
                             ****ORCA TERMINATED NORMALLY****
TOTAL RUN TIME: 0 days 0 hours 9 minutes 16 seconds 703 msec
