
                                 *****************
                                 * O   R   C   A *
                                 *****************

                                            #,                                       
                                            ###                                      
                                            ####                                     
                                            #####                                    
                                            ######                                   
                                           ########,                                 
                                     ,,################,,,,,                         
                               ,,#################################,,                 
                          ,,##########################################,,             
                       ,#########################################, ''#####,          
                    ,#############################################,,   '####,        
                  ,##################################################,,,,####,       
                ,###########''''           ''''###############################       
              ,#####''   ,,,,##########,,,,          '''####'''          '####       
            ,##' ,,,,###########################,,,                        '##       
           ' ,,###''''                  '''############,,,                           
         ,,##''                                '''############,,,,        ,,,,,,###''
      ,#''                                            '''#######################'''  
     '                                                          ''''####''''         
             ,#######,   #######,   ,#######,      ##                                
            ,#'     '#,  ##    ##  ,#'     '#,    #''#        ,####,    ,#,          
            ##       ##  ##   ,#'  ##            #'  '#       #'       ,# #          
            ##       ##  #######   ##           ,######,      #####,      #          
            '#,     ,#'  ##    ##  '#,     ,#' ,#      #,     #,   #      #          
             '#######'   ##     ##  '#######'  #'      '#     '####' #    #          



                #########################################################
                #                        -***-                          #
                #          Department of theory and spectroscopy        #
                #                                                       #
                #                      Frank Neese                      #
                #                                                       #
                #     Directorship, Architecture, Infrastructure        #
                #                    SHARK, DRIVERS                     #
                #        Core code/Algorithms in most modules           #
                #                                                       #
                #        Max Planck Institute fuer Kohlenforschung      #
                #                Kaiser Wilhelm Platz 1                 #
                #                 D-45470 Muelheim/Ruhr                 #
                #                      Germany                          #
                #                                                       #
                #                  All rights reserved                  #
                #                        -***-                          #
                #########################################################


                         Program Version 6.1.1  -  RELEASE   -
                                (GIT: $487d211c$)
                          ($2025-11-21 10:33:24 +0100$)
                                                                         
                                  - NO-DMRG VERSION -                    
                                                                         


 With contributions from (in alphabetic order):
[Max-Planck-Institut fuer Kohlenforschung]                               
  Daniel Aravena         : Magnetic Suceptibility                        
  Michael Atanasov       : Ab Initio Ligand Field Theory (pilot matlab implementation)
  Alexander A. Auer      : GIAO ZORA, VPT2 properties, NMR spectrum      
  Ute Becker             : All parallelization in ORCA, NUMFREQ, NUMCALC 
  Giovanni Bistoni       : ED, misc. LED, open-shell LED, HFLD           
  Dmytro Bykov           : pre 5.0 version of the SCF Hessian            
  Marcos Casanova-Páez   : Triplet and SCS-CIS(D). UHF-(DLPNO)-IP/EA/STEOM-CCSD. UHF-CVS-IP/STEOM-CCSD   
  Vijay G. Chilkuri      : MRCI spin determinant printing, contributions to CSF-ICE 
  Pauline Colinet        : FMM embedding                                 
  Dipayan Datta          : RHF DLPNO-CCSD density                        
  Achintya Kumar Dutta   : EOM-CC, STEOM-CC                              
  Nicolas Foglia         : Exact transition moments, OPA infrastructure, MCD improvements    
  Dmitry Ganyushin       : Spin-Orbit,Spin-Spin,Magnetic field MRCI      
  Miquel Garcia-Rates    : C-PCM and meta-GGA Hessian, CCSD/C-PCM, Gaussian charge scheme 
  Tiago L. C. Gouveia    : GS-ROHF, GS-ROCIS                             
  Yang Guo               : DLPNO-NEVPT2, F12-NEVPT2, CIM, IAO-localization        
  Andreas Hansen         : Spin unrestricted coupled pair/coupled cluster methods 
  Ingolf Harden          : AUTO-CI MPn and infrastructure                
  Benjamin Helmich-Paris : MC-RPA, TRAH-(SCF,CASSCF), AVAS, COSX integrals, SCF dyn. polar., MC-PDFT, srDFT 
  Lee Huntington         : MR-EOM, pCC                                   
  Robert Izsak           : Overlap fitted RIJCOSX, COSX-SCS-MP3, EOM     
  Riya Kayal             : Wick's Theorem for AUTO-CI, AUTO-CI UHF-CCSDT 
  Emily Kempfer          : AUTO-CI RHF CISDT and CCSDT, approximate NEVPT4
  Christian Kollmar      : KDIIS, OOCD, Brueckner-CCSD(T), CCSD density, CASPT2, CASPT2-K, improved NEVPT2 
  Axel Koslowski         : Symmetry handling                             
  Simone Kossmann        : meta-GGA functionals, TD-DFT gradient, OOMP2, (MP2 Hessian; deprecated post 5.0) 
  Lucas Lang             : DCDCAS, Hyperfine gauge corrections, ICE-SOC+SSC
  Marvin Lechner         : AUTO-CI (C++ implementation), FIC-MRCC        
  Spencer Leger          : CASSCF response                               
  Dagmar Lenk            : GEPOL surface, SMD, ORCA-2-JSON               
  Dimitrios Liakos       : Extrapolation schemes; Compound Job, Property file
  Dimitrios Manganas     : Further ROCIS development; embedding schemes. LFT, Crystal Embedding 
  Dimitrios Pantazis     : SARC Basis sets                               
  Anastasios Papadopoulos: AUTO-CI, single reference methods and gradients 
  Taras Petrenko         : pre 6.0 DFT Hessian and TD-DFT gradient,  ECA, NRVS 
  Petra Pikulova         : Analytic Raman intensities                    
  Peter Pinski           : DLPNO-MP2, DLPNO-MP2 Gradient                 
  Shashank Vittal Rao    : ES-AILFT, MagRelax                            
  Christoph Reimann      : Effective Core Potentials                     
  Marius Retegan         : Local ZFS, SOC                                
  Christoph Riplinger    : Optimizer, TS searches, QM/MM, DLPNO-CCSD(T), (RO)-DLPNO pert. Triples 
  Michael Roemelt        : Original ROCIS implementation, recursive CI coupling coefficients
  Masaaki Saitow         : Open-shell DLPNO-CCSD energy and density      
  Barbara Sandhoefer     : DKH picture change effects                    
  Yorick L. A. Schmerwitz: GMF and freeze-and-release deltaSCF, NEB S-IDPP initial path                    
  Kantharuban Sivalingam : CASSCF convergence/infrastructure, NEVPT2, NEVPT3, NEVPT4(SD), FIC-MRCI and CEPA variants
  Bernardo de Souza      : ESD, SOC TD-DFT                               
  Georgi L. Stoychev     : AutoAux, RI-MP2 NMR, DLPNO-MP2 response, X2C  
  Van Anh Tran           : RI-MP2 g-tensors                              
  Willem Van den Heuvel  : Paramagnetic NMR                              
  Zikuan Wang            : NOTCH, Electric field optimization            
  Frank Wennmohs         : Technical directorship and infrastructure     
  Hang Xu                : AUTO-CI-Response properties                   
                                                                         
[FACCTs GmbH]                                                            
  Markus Bursch, Nicolas Foglia, Miquel Garcia-Rates, Ingolf Harden, Hagen Neugebauer, Anastasios Papadopoulos, 
  Christoph Riplinger, Bernardo de Souza, Georgi L. Stoychev                                                    
                                                                 
  APM, various basis sets, CI-OPT, improved COSX, DLPNO-Multilevel,           
  DOCKER, DRACO, updates on ESD, Fragmentator, GOAT, IRC, LR-CPCM, L-BFGS, MBIS, meta-GGA TD-DFT gradient, ML-optimized integration grids, 
  MM, NACMEs, nearIR, NEB, NEB-TS, NL-DFT gradient (VV10), 2- and 3-layer-ONIOM, interface openCOSMO-RS, QMMM,   
  Crystal-QMMM, RESP, rigid body optimization, SF, symmetry and pop. for TD-DFT, various functionals, SOLVATOR                                   
                                                                         
[Other institutions]                                                     
  V. Asgeirsson          : NEB                                           
  Christoph Bannwarth    : sTDA-DFT, sTD-DFT, PBEh-3c, B97-3c, D3        
  Giovanni Bistoni       : ETS/NOCV, ADLD/ADEX, COVALED                  
  Martin Brehm           : Molecular dynamics                            
  Ronald Cardenas        : ETS/NOCV                                      
  Martina Colucci        : COVALED                                       
  Sebastian Ehlert       : rSCAN, r2SCAN, r2SCAN-3c, D4, dhf basis sets  
  Marvin Friede          : D4 for Fr, Ra, Ac-Lr                          
  Lars Goerigk           : TD-DFT with DH, B97 family of functionals     
  Stefan Grimme          : VdW corrections, initial TS optimization, DFT functionals, gCP, sTDA/sTD-DF 
  Waldemar Hujo          : DFT-NL                                        
  H. Jonsson             : NEB                                           
  Holger Kruse           : gCP                                           
  Marcel Mueller         : wB97X-3c, vDZP basis set                      
  Hagen Neugebauer       : wr2SCAN, Native XTB                           
  Gianluca Regni         : ADLD/ADEX                                     
  Tobias Risthaus        : pre 6.0 range-separated hybrid DFT and stability analysis
  Lukas Wittmann         : regularized MP2, r2SCAN double-hybrids, wr2SCAN        
                                                                         
We gratefully acknowledge several colleagues who have allowed us to      
interface, adapt or use parts of their codes:                            
  Ed Valeev, F. Pavosevic, A. Kumar             : LibInt (2-el integral package), F12 methods 
  Garnet Chan, S. Sharma, J. Yang, R. Olivares  : DMRG                   
  Ulf Ekstrom                                   : XCFun DFT Library      
  Mihaly Kallay                                 : mrcc  (arbitrary order and MRCC methods)
  Frank Weinhold                                : gennbo (NPA and NBO analysis)           
  Simon Mueller                                 : openCOSMO-RS                            
  Christopher J. Cramer and Donald G. Truhlar   : smd solvation model                     
  S Lehtola, MJT Oliveira, MAL Marques          : LibXC Library                           
  Liviu Ungur et al                             : ANISO software                          


 Your calculation uses the libint2 library for the computation of 2-el integrals
 For citations please refer to: http://libint.valeyev.net

 Your ORCA version has been built with support for libXC version: 7.0.0
 For citations please refer to: https://libxc.gitlab.io

 This ORCA versions uses:
   CBLAS   interface :  Fast vector & matrix operations
   LAPACKE interface :  Fast linear algebra routines
   SCALAPACK package :  Parallel linear algebra routines
   Shared memory     :  Shared parallel matrices
   BLAS/LAPACK       :  OpenBLAS 0.3.29  USE64BITINT DYNAMIC_ARCH NO_AFFINITY Zen SINGLE_THREADED
        Core in use  :  Zen
   Copyright (c) 2011-2014, The OpenBLAS Project


  ***********************************
  * Starting time: Thu Apr 23 18:28:41 2026
  * Host name:     vmi3233575
  * Process ID:    1397804
  * Working dir.:  /root/b12_scan/jobs/icosahedron_nn5.00
  ***********************************

NOTE: MaxCore=2500 MB was set to SCF,MP2,MDCI,CIPSI,MRCI,RASCI and CIS
      => If you want to overwrite this, your respective input block should be placed after the MaxCore statement
Your calculation utilizes the atom-pairwise dispersion correction
with the Becke-Johnson damping scheme (D3BJ)


================================================================================

----- Orbital basis set information -----
Your calculation utilizes the basis: def2-SVP
   F. Weigend and R. Ahlrichs, Phys. Chem. Chem. Phys. 7, 3297 (2005).

----- AuxJ basis set information -----
Your calculation utilizes the auxiliary basis: def2/J
   H-Rn: F. Weigend, Phys. Chem. Chem. Phys. 8, 1057 (2006).
   Fr-Lr: K. Eichkorn, F. Weigend, O. Treutler, R. Ahlrichs; Theor. Chem. Acc. 97, 119 (1997).

================================================================================
                                        WARNINGS
                       Please study these warnings very carefully!
================================================================================


WARNING: Geometry Optimization
  ===> : Switching off AutoStart
         For restart on a previous wavefunction, please use MOREAD

================================================================================
                                       INPUT FILE
================================================================================
NAME = icosahedron_nn5.00.inp
|  1> ! BP86 def2-SVP def2/J RI Opt TightSCF D3BJ
|  2> ! SlowConv
|  3> 
|  4> %pal nprocs 8 end
|  5> %maxcore 2500
|  6> 
|  7> %geom
|  8>   MaxIter 300
|  9> end
| 10> 
| 11> * xyz 0 1
| 12> B      0.00000000     -2.50000000     -4.04508497
| 13> B     -2.50000000     -4.04508497      0.00000000
| 14> B     -4.04508497      0.00000000     -2.50000000
| 15> B      0.00000000     -2.50000000      4.04508497
| 16> B     -2.50000000      4.04508497      0.00000000
| 17> B      4.04508497      0.00000000     -2.50000000
| 18> B      0.00000000      2.50000000     -4.04508497
| 19> B      2.50000000     -4.04508497      0.00000000
| 20> B     -4.04508497      0.00000000      2.50000000
| 21> B      0.00000000      2.50000000      4.04508497
| 22> B      2.50000000      4.04508497      0.00000000
| 23> B      4.04508497      0.00000000      2.50000000
| 24> *
| 25> 
| 26>                          ****END OF INPUT****
================================================================================

                       *****************************
                       * Geometry Optimization Run *
                       *****************************

Geometry optimization settings:
Update method            Update   .... BFGS
Choice of coordinates    CoordSys .... (2022) Redundant Internals
Initial Hessian          InHess   .... Almloef's Model
Max. no of cycles        MaxIter  .... 300

Convergence Tolerances:
Energy Change            TolE     ....  5.0000e-06 Eh
Max. Gradient            TolMAXG  ....  3.0000e-04 Eh/bohr
RMS Gradient             TolRMSG  ....  1.0000e-04 Eh/bohr
Max. Displacement        TolMAXD  ....  4.0000e-03 bohr
RMS Displacement         TolRMSD  ....  2.0000e-03 bohr
Strict Convergence                .... False

------------------------------------------------------------------------------
                        ORCA OPTIMIZATION COORDINATE SETUP
------------------------------------------------------------------------------

The optimization will be done in redundant internal coordinates (2022)
Making redundant internal coordinates   ...  (2022 redundants) done
Evaluating the initial hessian          ...  (Almloef) done
Evaluating the coordinates              ...  done
Calculating the B-matrix                .... done
Calculating the G-matrix                .... done
The number of degrees of freedom        ....  390

    -----------------------------------------------------------------
                    Redundant Internal Coordinates


    -----------------------------------------------------------------
         Definition                    Initial Value    Approx d2E/dq
    -----------------------------------------------------------------
      1. B(B   1,B   0)                  5.0000         0.010000   
      2. B(B   2,B   0)                  5.0000         0.010000   
      3. B(B   2,B   1)                  5.0000         0.010000   
      4. B(B   3,B   1)                  5.0000         0.010000   
      5. B(B   4,B   2)                  5.0000         0.010000   
      6. B(B   5,B   0)                  5.0000         0.010000   
      7. B(B   6,B   2)                  5.0000         0.010000   
      8. B(B   6,B   0)                  5.0000         0.010000   
      9. B(B   6,B   5)                  5.0000         0.010000   
     10. B(B   6,B   4)                  5.0000         0.010000   
     11. B(B   7,B   5)                  5.0000         0.010000   
     12. B(B   7,B   1)                  5.0000         0.010000   
     13. B(B   7,B   0)                  5.0000         0.010000   
     14. B(B   7,B   3)                  5.0000         0.010000   
     15. B(B   8,B   4)                  5.0000         0.010000   
     16. B(B   8,B   2)                  5.0000         0.010000   
     17. B(B   8,B   3)                  5.0000         0.010000   
     18. B(B   8,B   1)                  5.0000         0.010000   
     19. B(B   9,B   3)                  5.0000         0.010000   
     20. B(B   9,B   8)                  5.0000         0.010000   
     21. B(B   9,B   4)                  5.0000         0.010000   
     22. B(B  10,B   4)                  5.0000         0.010000   
     23. B(B  10,B   9)                  5.0000         0.010000   
     24. B(B  10,B   6)                  5.0000         0.010000   
     25. B(B  10,B   5)                  5.0000         0.010000   
     26. B(B  11,B  10)                  5.0000         0.010000   
     27. B(B  11,B   9)                  5.0000         0.010000   
     28. B(B  11,B   5)                  5.0000         0.010000   
     29. B(B  11,B   7)                  5.0000         0.010000   
     30. B(B  11,B   3)                  5.0000         0.010000   
     31. A(B   5,B   0,B   6)           60.0000         0.090020   
     32. A(B   1,B   0,B   2)           60.0000         0.090020   
     33. A(B   1,B   0,B   5)          108.0000         0.090020   
     34. A(B   1,B   0,B   7)           60.0000         0.090020   
     35. A(B   2,B   0,B   5)          108.0000         0.090020   
     36. A(B   2,B   0,B   6)           60.0000         0.090020   
     37. A(B   1,B   0,B   6)          108.0000         0.090020   
     38. A(B   2,B   0,B   7)          108.0000         0.090020   
     39. A(B   5,B   0,B   7)           60.0000         0.090020   
     40. A(B   6,B   0,B   7)          108.0000         0.090020   
     41. A(B   3,B   1,B   8)           60.0000         0.090020   
     42. A(B   7,B   1,B   8)          108.0000         0.090020   
     43. A(B   3,B   1,B   7)           60.0000         0.090020   
     44. A(B   2,B   1,B   3)          108.0000         0.090020   
     45. A(B   0,B   1,B   8)          108.0000         0.090020   
     46. A(B   2,B   1,B   8)           60.0000         0.090020   
     47. A(B   2,B   1,B   7)          108.0000         0.090020   
     48. A(B   0,B   1,B   3)          108.0000         0.090020   
     49. A(B   0,B   1,B   2)           60.0000         0.090020   
     50. A(B   0,B   1,B   7)           60.0000         0.090020   
     51. A(B   0,B   2,B   8)          108.0000         0.090020   
     52. A(B   0,B   2,B   1)           60.0000         0.090020   
     53. A(B   6,B   2,B   8)          108.0000         0.090020   
     54. A(B   1,B   2,B   4)          108.0000         0.090020   
     55. A(B   4,B   2,B   6)           60.0000         0.090020   
     56. A(B   1,B   2,B   6)          108.0000         0.090020   
     57. A(B   4,B   2,B   8)           60.0000         0.090020   
     58. A(B   0,B   2,B   4)          108.0000         0.090020   
     59. A(B   1,B   2,B   8)           60.0000         0.090020   
     60. A(B   0,B   2,B   6)           60.0000         0.090020   
     61. A(B   8,B   3,B  11)          108.0000         0.090020   
     62. A(B   8,B   3,B   9)           60.0000         0.090020   
     63. A(B   7,B   3,B   8)          108.0000         0.090020   
     64. A(B   1,B   3,B   8)           60.0000         0.090020   
     65. A(B   7,B   3,B   9)          108.0000         0.090020   
     66. A(B   1,B   3,B   7)           60.0000         0.090020   
     67. A(B   1,B   3,B  11)          108.0000         0.090020   
     68. A(B   7,B   3,B  11)           60.0000         0.090020   
     69. A(B   9,B   3,B  11)           60.0000         0.090020   
     70. A(B   1,B   3,B   9)          108.0000         0.090020   
     71. A(B   9,B   4,B  10)           60.0000         0.090020   
     72. A(B   6,B   4,B  10)           60.0000         0.090020   
     73. A(B   2,B   4,B  10)          108.0000         0.090020   
     74. A(B   2,B   4,B   6)           60.0000         0.090020   
     75. A(B   6,B   4,B   8)          108.0000         0.090020   
     76. A(B   8,B   4,B   9)           60.0000         0.090020   
     77. A(B   2,B   4,B   8)           60.0000         0.090020   
     78. A(B   6,B   4,B   9)          108.0000         0.090020   
     79. A(B   2,B   4,B   9)          108.0000         0.090020   
     80. A(B   8,B   4,B  10)          108.0000         0.090020   
     81. A(B   6,B   5,B  10)           60.0000         0.090020   
     82. A(B   0,B   5,B   6)           60.0000         0.090020   
     83. A(B  10,B   5,B  11)           60.0000         0.090020   
     84. A(B   7,B   5,B  10)          108.0000         0.090020   
     85. A(B   0,B   5,B  10)          108.0000         0.090020   
     86. A(B   0,B   5,B   7)           60.0000         0.090020   
     87. A(B   6,B   5,B   7)          108.0000         0.090020   
     88. A(B   6,B   5,B  11)          108.0000         0.090020   
     89. A(B   7,B   5,B  11)           60.0000         0.090020   
     90. A(B   0,B   5,B  11)          108.0000         0.090020   
     91. A(B   0,B   6,B   5)           60.0000         0.090020   
     92. A(B   0,B   6,B   2)           60.0000         0.090020   
     93. A(B   0,B   6,B   4)          108.0000         0.090020   
     94. A(B   4,B   6,B   5)          108.0000         0.090020   
     95. A(B   0,B   6,B  10)          108.0000         0.090020   
     96. A(B   5,B   6,B  10)           60.0000         0.090020   
     97. A(B   4,B   6,B  10)           60.0000         0.090020   
     98. A(B   2,B   6,B  10)          108.0000         0.090020   
     99. A(B   2,B   6,B   4)           60.0000         0.090020   
    100. A(B   2,B   6,B   5)          108.0000         0.090020   
    101. A(B   1,B   7,B  11)          108.0000         0.090020   
    102. A(B   5,B   7,B  11)           60.0000         0.090020   
    103. A(B   0,B   7,B  11)          108.0000         0.090020   
    104. A(B   0,B   7,B   3)          108.0000         0.090020   
    105. A(B   1,B   7,B   5)          108.0000         0.090020   
    106. A(B   0,B   7,B   1)           60.0000         0.090020   
    107. A(B   0,B   7,B   5)           60.0000         0.090020   
    108. A(B   1,B   7,B   3)           60.0000         0.090020   
    109. A(B   3,B   7,B   5)          108.0000         0.090020   
    110. A(B   3,B   7,B  11)           60.0000         0.090020   
    111. A(B   1,B   8,B   2)           60.0000         0.090020   
    112. A(B   1,B   8,B   3)           60.0000         0.090020   
    113. A(B   4,B   8,B   9)           60.0000         0.090020   
    114. A(B   2,B   8,B   9)          108.0000         0.090020   
    115. A(B   3,B   8,B   9)           60.0000         0.090020   
    116. A(B   1,B   8,B   9)          108.0000         0.090020   
    117. A(B   2,B   8,B   4)           60.0000         0.090020   
    118. A(B   3,B   8,B   4)          108.0000         0.090020   
    119. A(B   1,B   8,B   4)          108.0000         0.090020   
    120. A(B   2,B   8,B   3)          108.0000         0.090020   
    121. A(B   3,B   9,B  10)          108.0000         0.090020   
    122. A(B  10,B   9,B  11)           60.0000         0.090020   
    123. A(B   8,B   9,B  10)          108.0000         0.090020   
    124. A(B   4,B   9,B  10)           60.0000         0.090020   
    125. A(B   3,B   9,B  11)           60.0000         0.090020   
    126. A(B   3,B   9,B   8)           60.0000         0.090020   
    127. A(B   3,B   9,B   4)          108.0000         0.090020   
    128. A(B   8,B   9,B  11)          108.0000         0.090020   
    129. A(B   4,B   9,B  11)          108.0000         0.090020   
    130. A(B   4,B   9,B   8)           60.0000         0.090020   
    131. A(B   4,B  10,B  11)          108.0000         0.090020   
    132. A(B   4,B  10,B   9)           60.0000         0.090020   
    133. A(B   4,B  10,B   6)           60.0000         0.090020   
    134. A(B   4,B  10,B   5)          108.0000         0.090020   
    135. A(B   9,B  10,B  11)           60.0000         0.090020   
    136. A(B   6,B  10,B  11)          108.0000         0.090020   
    137. A(B   5,B  10,B  11)           60.0000         0.090020   
    138. A(B   6,B  10,B   9)          108.0000         0.090020   
    139. A(B   5,B  10,B   9)          108.0000         0.090020   
    140. A(B   5,B  10,B   6)           60.0000         0.090020   
    141. A(B   9,B  11,B  10)           60.0000         0.090020   
    142. A(B   5,B  11,B  10)           60.0000         0.090020   
    143. A(B   7,B  11,B  10)          108.0000         0.090020   
    144. A(B   3,B  11,B  10)          108.0000         0.090020   
    145. A(B   5,B  11,B   9)          108.0000         0.090020   
    146. A(B   7,B  11,B   9)          108.0000         0.090020   
    147. A(B   3,B  11,B   9)           60.0000         0.090020   
    148. A(B   5,B  11,B   7)           60.0000         0.090020   
    149. A(B   3,B  11,B   5)          108.0000         0.090020   
    150. A(B   3,B  11,B   7)           60.0000         0.090020   
    151. D(B   3,B   1,B   0,B   5)     -0.0000         0.010000   
    152. D(B   2,B   1,B   0,B   5)    100.8123         0.010000   
    153. D(B   3,B   1,B   0,B   2)   -100.8123         0.010000   
    154. D(B   7,B   1,B   0,B   5)    -37.3774         0.010000   
    155. D(B   2,B   1,B   0,B   7)    138.1897         0.010000   
    156. D(B   7,B   1,B   0,B   6)   -100.8123         0.010000   
    157. D(B   7,B   1,B   0,B   2)   -138.1897         0.010000   
    158. D(B   2,B   1,B   0,B   6)     37.3774         0.010000   
    159. D(B   4,B   2,B   0,B   1)    100.8123         0.010000   
    160. D(B   0,B   2,B   1,B   3)    100.8123         0.010000   
    161. D(B   0,B   2,B   1,B   8)    138.1897         0.010000   
    162. D(B   1,B   2,B   0,B   7)    -37.3774         0.010000   
    163. D(B   8,B   2,B   1,B   7)   -100.8123         0.010000   
    164. D(B   8,B   2,B   1,B   0)   -138.1897         0.010000   
    165. D(B   8,B   2,B   0,B   7)     -0.0000         0.010000   
    166. D(B   1,B   2,B   0,B   6)   -138.1897         0.010000   
    167. D(B   1,B   2,B   0,B   5)   -100.8123         0.010000   
    168. D(B   4,B   2,B   1,B   7)    -63.4349         0.010000   
    169. D(B   0,B   2,B   1,B   7)     37.3774         0.010000   
    170. D(B   8,B   2,B   0,B   6)   -100.8123         0.010000   
    171. D(B   8,B   2,B   0,B   5)    -63.4349         0.010000   
    172. D(B   4,B   2,B   1,B   0)   -100.8123         0.010000   
    173. D(B   8,B   2,B   0,B   1)     37.3774         0.010000   
    174. D(B   8,B   2,B   1,B   3)    -37.3774         0.010000   
    175. D(B   8,B   3,B   1,B   7)    138.1897         0.010000   
    176. D(B   7,B   3,B   1,B   2)   -100.8123         0.010000   
    177. D(B  11,B   3,B   1,B   0)      0.0000         0.010000   
    178. D(B   7,B   3,B   1,B   0)    -37.3774         0.010000   
    179. D(B   8,B   3,B   1,B   2)     37.3774         0.010000   
    180. D(B   7,B   3,B   1,B   8)   -138.1897         0.010000   
    181. D(B   8,B   3,B   1,B   0)    100.8123         0.010000   
    182. D(B  11,B   3,B   1,B   2)    -63.4349         0.010000   
    183. D(B   6,B   4,B   2,B   8)    138.1897         0.010000   
    184. D(B   9,B   4,B   2,B   1)      0.0000         0.010000   
    185. D(B   8,B   4,B   2,B   1)    -37.3774         0.010000   
    186. D(B   6,B   4,B   2,B   1)    100.8123         0.010000   
    187. D(B   8,B   4,B   2,B   0)   -100.8123         0.010000   
    188. D(B   9,B   4,B   2,B   0)    -63.4349         0.010000   
    189. D(B   8,B   4,B   2,B   6)   -138.1897         0.010000   
    190. D(B   6,B   4,B   2,B   0)     37.3774         0.010000   
    191. D(B   7,B   5,B   0,B   6)    138.1897         0.010000   
    192. D(B   6,B   5,B   0,B   2)    -37.3774         0.010000   
    193. D(B   6,B   5,B   0,B   7)   -138.1897         0.010000   
    194. D(B  11,B   5,B   0,B   1)      0.0000         0.010000   
    195. D(B  11,B   5,B   0,B   2)     63.4349         0.010000   
    196. D(B   6,B   5,B   0,B   1)   -100.8123         0.010000   
    197. D(B   7,B   5,B   0,B   2)    100.8123         0.010000   
    198. D(B   7,B   5,B   0,B   1)     37.3774         0.010000   
    199. D(B   5,B   6,B   2,B   1)      0.0000         0.010000   
    200. D(B   4,B   6,B   2,B   0)   -138.1897         0.010000   
    201. D(B   4,B   6,B   0,B   2)     37.3774         0.010000   
    202. D(B   2,B   6,B   0,B   7)   -100.8123         0.010000   
    203. D(B   5,B   6,B   2,B   0)    -37.3774         0.010000   
    204. D(B   5,B   6,B   0,B   1)    100.8123         0.010000   
    205. D(B   4,B   6,B   0,B   7)    -63.4349         0.010000   
    206. D(B   4,B   6,B   0,B   1)      0.0000         0.010000   
    207. D(B   4,B   6,B   2,B   1)   -100.8123         0.010000   
    208. D(B   2,B   6,B   0,B   5)   -138.1897         0.010000   
    209. D(B   5,B   6,B   2,B   8)     63.4349         0.010000   
    210. D(B   4,B   6,B   2,B   8)    -37.3774         0.010000   
    211. D(B   4,B   6,B   0,B   5)   -100.8123         0.010000   
    212. D(B   2,B   6,B   0,B   1)    -37.3774         0.010000   
    213. D(B   4,B   6,B   5,B  10)    -37.3774         0.010000   
    214. D(B   5,B   6,B   2,B   4)    100.8123         0.010000   
    215. D(B   4,B   6,B   5,B   7)     63.4349         0.010000   
    216. D(B   4,B   6,B   5,B   0)    100.8123         0.010000   
    217. D(B   2,B   6,B   5,B  10)   -100.8123         0.010000   
    218. D(B   2,B   6,B   5,B   7)     -0.0000         0.010000   
    219. D(B   2,B   6,B   5,B   0)     37.3774         0.010000   
    220. D(B   0,B   6,B   4,B   8)      0.0000         0.010000   
    221. D(B   2,B   6,B   4,B  10)    138.1897         0.010000   
    222. D(B   5,B   6,B   4,B   2)   -100.8123         0.010000   
    223. D(B   5,B   6,B   4,B   8)    -63.4349         0.010000   
    224. D(B   2,B   6,B   5,B  11)    -63.4349         0.010000   
    225. D(B   5,B   6,B   4,B  10)     37.3774         0.010000   
    226. D(B   2,B   6,B   4,B   9)    100.8123         0.010000   
    227. D(B   2,B   6,B   4,B   8)     37.3774         0.010000   
    228. D(B   4,B   6,B   5,B  11)     -0.0000         0.010000   
    229. D(B   0,B   6,B   2,B   1)     37.3774         0.010000   
    230. D(B   5,B   6,B   4,B   9)      0.0000         0.010000   
    231. D(B   3,B   7,B   5,B   0)   -100.8123         0.010000   
    232. D(B   1,B   7,B   5,B  11)    100.8123         0.010000   
    233. D(B   1,B   7,B   5,B   6)      0.0000         0.010000   
    234. D(B   1,B   7,B   5,B   0)    -37.3774         0.010000   
    235. D(B   0,B   7,B   5,B  11)    138.1897         0.010000   
    236. D(B   0,B   7,B   5,B   6)     37.3774         0.010000   
    237. D(B   5,B   7,B   3,B   9)     -0.0000         0.010000   
    238. D(B   5,B   7,B   3,B   8)     63.4349         0.010000   
    239. D(B   5,B   7,B   3,B   1)    100.8123         0.010000   
    240. D(B   0,B   7,B   3,B   9)    -63.4349         0.010000   
    241. D(B   0,B   7,B   3,B   1)     37.3774         0.010000   
    242. D(B   3,B   7,B   1,B   0)    138.1897         0.010000   
    243. D(B   0,B   7,B   1,B   8)   -100.8123         0.010000   
    244. D(B   5,B   7,B   1,B   2)      0.0000         0.010000   
    245. D(B   5,B   7,B   1,B   0)     37.3774         0.010000   
    246. D(B   5,B   7,B   1,B   8)    -63.4349         0.010000   
    247. D(B   0,B   7,B   1,B   3)   -138.1897         0.010000   
    248. D(B   0,B   7,B   1,B   2)    -37.3774         0.010000   
    249. D(B   3,B   7,B   0,B   2)      0.0000         0.010000   
    250. D(B   5,B   7,B   1,B   3)   -100.8123         0.010000   
    251. D(B   3,B   7,B   0,B   1)    -37.3774         0.010000   
    252. D(B   5,B   7,B   3,B  11)    -37.3774         0.010000   
    253. D(B   1,B   7,B   0,B   6)    100.8123         0.010000   
    254. D(B   0,B   7,B   3,B  11)   -100.8123         0.010000   
    255. D(B   1,B   7,B   0,B   5)    138.1897         0.010000   
    256. D(B   0,B   7,B   5,B  10)    100.8123         0.010000   
    257. D(B   1,B   7,B   0,B   2)     37.3774         0.010000   
    258. D(B   5,B   7,B   0,B   1)   -138.1897         0.010000   
    259. D(B   1,B   7,B   5,B  10)     63.4349         0.010000   
    260. D(B   5,B   7,B   0,B   2)   -100.8123         0.010000   
    261. D(B   0,B   7,B   3,B   8)     -0.0000         0.010000   
    262. D(B   5,B   7,B   0,B   6)    -37.3774         0.010000   
    263. D(B   3,B   8,B   2,B   4)   -100.8123         0.010000   
    264. D(B   3,B   8,B   2,B   0)      0.0000         0.010000   
    265. D(B   3,B   8,B   2,B   1)     37.3774         0.010000   
    266. D(B   1,B   8,B   2,B   4)   -138.1897         0.010000   
    267. D(B   1,B   8,B   2,B   0)    -37.3774         0.010000   
    268. D(B   4,B   8,B   1,B   2)    -37.3774         0.010000   
    269. D(B   2,B   8,B   1,B   0)     37.3774         0.010000   
    270. D(B   3,B   8,B   1,B   0)   -100.8123         0.010000   
    271. D(B   3,B   8,B   1,B   7)    -37.3774         0.010000   
    272. D(B   1,B   8,B   2,B   6)   -100.8123         0.010000   
    273. D(B   3,B   8,B   1,B   2)   -138.1897         0.010000   
    274. D(B   2,B   8,B   1,B   7)    100.8123         0.010000   
    275. D(B   4,B   8,B   1,B   0)      0.0000         0.010000   
    276. D(B   3,B   8,B   2,B   6)    -63.4349         0.010000   
    277. D(B   2,B   8,B   1,B   3)    138.1897         0.010000   
    278. D(B   3,B   8,B   4,B  10)     -0.0000         0.010000   
    279. D(B   3,B   8,B   4,B   6)     63.4349         0.010000   
    280. D(B   3,B   8,B   4,B   2)    100.8123         0.010000   
    281. D(B   1,B   8,B   4,B  10)    -63.4349         0.010000   
    282. D(B   1,B   8,B   4,B   6)     -0.0000         0.010000   
    283. D(B   1,B   8,B   4,B   2)     37.3774         0.010000   
    284. D(B   4,B   8,B   3,B   7)    -63.4349         0.010000   
    285. D(B   2,B   8,B   3,B   9)    100.8123         0.010000   
    286. D(B   2,B   8,B   3,B  11)     63.4349         0.010000   
    287. D(B   2,B   8,B   3,B   1)    -37.3774         0.010000   
    288. D(B   1,B   8,B   4,B   9)   -100.8123         0.010000   
    289. D(B   2,B   8,B   3,B   7)      0.0000         0.010000   
    290. D(B   1,B   8,B   3,B   9)    138.1897         0.010000   
    291. D(B   1,B   8,B   3,B  11)    100.8123         0.010000   
    292. D(B   3,B   8,B   4,B   9)    -37.3774         0.010000   
    293. D(B   1,B   8,B   3,B   7)     37.3774         0.010000   
    294. D(B   4,B   8,B   2,B   1)    138.1897         0.010000   
    295. D(B   3,B   9,B   8,B   1)    -37.3774         0.010000   
    296. D(B  11,B   9,B   8,B   2)    -63.4349         0.010000   
    297. D(B  11,B   9,B   8,B   3)     37.3774         0.010000   
    298. D(B  11,B   9,B   8,B   1)     -0.0000         0.010000   
    299. D(B   4,B   9,B   8,B   2)     37.3774         0.010000   
    300. D(B   4,B   9,B   8,B   3)    138.1897         0.010000   
    301. D(B   4,B   9,B   8,B   1)    100.8123         0.010000   
    302. D(B   3,B   9,B   4,B   8)     37.3774         0.010000   
    303. D(B  11,B   9,B   4,B  10)    -37.3774         0.010000   
    304. D(B  11,B   9,B   4,B   6)     -0.0000         0.010000   
    305. D(B  11,B   9,B   4,B   2)     63.4349         0.010000   
    306. D(B  11,B   9,B   4,B   8)    100.8123         0.010000   
    307. D(B   8,B   9,B   4,B  10)   -138.1897         0.010000   
    308. D(B   8,B   9,B   4,B   6)   -100.8123         0.010000   
    309. D(B   8,B   9,B   4,B   2)    -37.3774         0.010000   
    310. D(B  11,B   9,B   3,B   7)    -37.3774         0.010000   
    311. D(B   8,B   9,B   3,B  11)    138.1897         0.010000   
    312. D(B   8,B   9,B   3,B   1)     37.3774         0.010000   
    313. D(B   8,B   9,B   3,B   7)    100.8123         0.010000   
    314. D(B   4,B   9,B   3,B  11)    100.8123         0.010000   
    315. D(B   4,B   9,B   3,B   8)    -37.3774         0.010000   
    316. D(B  11,B   9,B   8,B   4)   -100.8123         0.010000   
    317. D(B   4,B   9,B   3,B   1)     -0.0000         0.010000   
    318. D(B   4,B   9,B   3,B   7)     63.4349         0.010000   
    319. D(B   6,B  10,B   9,B   3)     63.4349         0.010000   
    320. D(B   6,B  10,B   9,B   8)      0.0000         0.010000   
    321. D(B   6,B  10,B   9,B   4)    -37.3774         0.010000   
    322. D(B   5,B  10,B   9,B   3)      0.0000         0.010000   
    323. D(B   5,B  10,B   9,B  11)     37.3774         0.010000   
    324. D(B   5,B  10,B   9,B   8)    -63.4349         0.010000   
    325. D(B   5,B  10,B   9,B   4)   -100.8123         0.010000   
    326. D(B  11,B  10,B   6,B   2)     63.4349         0.010000   
    327. D(B   9,B  10,B   6,B   5)   -100.8123         0.010000   
    328. D(B   9,B  10,B   6,B   4)     37.3774         0.010000   
    329. D(B   9,B  10,B   6,B   2)     -0.0000         0.010000   
    330. D(B   5,B  10,B   6,B   4)    138.1897         0.010000   
    331. D(B   5,B  10,B   6,B   2)    100.8123         0.010000   
    332. D(B  11,B  10,B   5,B   0)    100.8123         0.010000   
    333. D(B   9,B  10,B   5,B  11)    -37.3774         0.010000   
    334. D(B   9,B  10,B   5,B   6)    100.8123         0.010000   
    335. D(B   9,B  10,B   5,B   7)     -0.0000         0.010000   
    336. D(B   5,B  10,B   6,B   0)     37.3774         0.010000   
    337. D(B   9,B  10,B   5,B   0)     63.4349         0.010000   
    338. D(B   6,B  10,B   5,B  11)   -138.1897         0.010000   
    339. D(B   6,B  10,B   5,B   7)   -100.8123         0.010000   
    340. D(B   9,B  10,B   6,B   0)    -63.4349         0.010000   
    341. D(B   6,B  10,B   5,B   0)    -37.3774         0.010000   
    342. D(B   9,B  10,B   4,B   8)    -37.3774         0.010000   
    343. D(B   6,B  10,B   4,B   9)    138.1897         0.010000   
    344. D(B   6,B  10,B   4,B   2)     37.3774         0.010000   
    345. D(B   6,B  10,B   4,B   8)    100.8123         0.010000   
    346. D(B   5,B  10,B   4,B   9)    100.8123         0.010000   
    347. D(B   5,B  10,B   4,B   6)    -37.3774         0.010000   
    348. D(B   6,B  10,B   9,B  11)    100.8123         0.010000   
    349. D(B   5,B  10,B   4,B   2)     -0.0000         0.010000   
    350. D(B   5,B  10,B   4,B   8)     63.4349         0.010000   
    351. D(B   7,B  11,B  10,B   4)     63.4349         0.010000   
    352. D(B   7,B  11,B  10,B   6)      0.0000         0.010000   
    353. D(B   7,B  11,B  10,B   5)    -37.3774         0.010000   
    354. D(B   3,B  11,B  10,B   4)      0.0000         0.010000   
    355. D(B   3,B  11,B  10,B   6)    -63.4349         0.010000   
    356. D(B   3,B  11,B  10,B   5)   -100.8123         0.010000   
    357. D(B   5,B  11,B   9,B   4)      0.0000         0.010000   
    358. D(B   7,B  11,B   9,B   3)     37.3774         0.010000   
    359. D(B   7,B  11,B   9,B   8)      0.0000         0.010000   
    360. D(B   7,B  11,B   9,B   4)    -63.4349         0.010000   
    361. D(B   3,B  11,B   9,B  10)   -138.1897         0.010000   
    362. D(B   3,B  11,B   9,B   8)    -37.3774         0.010000   
    363. D(B   3,B  11,B   9,B   4)   -100.8123         0.010000   
    364. D(B   9,B  11,B   7,B   5)    100.8123         0.010000   
    365. D(B   5,B  11,B   7,B   3)   -138.1897         0.010000   
    366. D(B   5,B  11,B   7,B   1)   -100.8123         0.010000   
    367. D(B   5,B  11,B   7,B   0)    -37.3774         0.010000   
    368. D(B   3,B  11,B   7,B   1)     37.3774         0.010000   
    369. D(B   3,B  11,B   7,B   5)    138.1897         0.010000   
    370. D(B   3,B  11,B   7,B   0)    100.8123         0.010000   
    371. D(B   9,B  11,B   5,B   0)    -63.4349         0.010000   
    372. D(B   9,B  11,B   7,B   0)     63.4349         0.010000   
    373. D(B   7,B  11,B   5,B  10)    138.1897         0.010000   
    374. D(B   7,B  11,B   5,B   6)    100.8123         0.010000   
    375. D(B   7,B  11,B   5,B   0)     37.3774         0.010000   
    376. D(B   3,B  11,B   5,B  10)    100.8123         0.010000   
    377. D(B   3,B  11,B   5,B   6)     63.4349         0.010000   
    378. D(B   3,B  11,B   5,B   7)    -37.3774         0.010000   
    379. D(B   3,B  11,B   5,B   0)     -0.0000         0.010000   
    380. D(B   7,B  11,B   9,B  10)   -100.8123         0.010000   
    381. D(B   9,B  11,B   3,B   7)    138.1897         0.010000   
    382. D(B   5,B  11,B   3,B   9)   -100.8123         0.010000   
    383. D(B   5,B  11,B   3,B   8)    -63.4349         0.010000   
    384. D(B   3,B  11,B  10,B   9)     37.3774         0.010000   
    385. D(B   5,B  11,B   3,B   1)     -0.0000         0.010000   
    386. D(B   5,B  11,B   3,B   7)     37.3774         0.010000   
    387. D(B   7,B  11,B   3,B   9)   -138.1897         0.010000   
    388. D(B   7,B  11,B  10,B   9)    100.8123         0.010000   
    389. D(B   7,B  11,B   3,B   8)   -100.8123         0.010000   
    390. D(B   7,B  11,B   3,B   1)    -37.3774         0.010000   
    -----------------------------------------------------------------

Number of atoms                         .... 12
Number of degrees of freedom            .... 390


         *************************************************************
         *                GEOMETRY OPTIMIZATION CYCLE   1            *
         *************************************************************
---------------------------------
CARTESIAN COORDINATES (ANGSTROEM)
---------------------------------
  B      0.000000   -2.500000   -4.045085
  B     -2.500000   -4.045085    0.000000
  B     -4.045085    0.000000   -2.500000
  B      0.000000   -2.500000    4.045085
  B     -2.500000    4.045085    0.000000
  B      4.045085    0.000000   -2.500000
  B      0.000000    2.500000   -4.045085
  B      2.500000   -4.045085    0.000000
  B     -4.045085    0.000000    2.500000
  B      0.000000    2.500000    4.045085
  B      2.500000    4.045085    0.000000
  B      4.045085    0.000000    2.500000

----------------------------
CARTESIAN COORDINATES (A.U.)
----------------------------
  NO LB      ZA    FRAG     MASS         X           Y           Z
   0 B     5.0000    0    10.810    0.000000   -4.724315   -7.644103
   1 B     5.0000    0    10.810   -4.724315   -7.644103    0.000000
   2 B     5.0000    0    10.810   -7.644103    0.000000   -4.724315
   3 B     5.0000    0    10.810    0.000000   -4.724315    7.644103
   4 B     5.0000    0    10.810   -4.724315    7.644103    0.000000
   5 B     5.0000    0    10.810    7.644103    0.000000   -4.724315
   6 B     5.0000    0    10.810    0.000000    4.724315   -7.644103
   7 B     5.0000    0    10.810    4.724315   -7.644103    0.000000
   8 B     5.0000    0    10.810   -7.644103    0.000000    4.724315
   9 B     5.0000    0    10.810    0.000000    4.724315    7.644103
  10 B     5.0000    0    10.810    4.724315    7.644103    0.000000
  11 B     5.0000    0    10.810    7.644103    0.000000    4.724315

--------------------------------
INTERNAL COORDINATES (ANGSTROEM)
--------------------------------
 B      0   0   0     0.000000000000     0.00000000     0.00000000
 B      1   0   0     4.999999997904     0.00000000     0.00000000
 B      1   2   0     4.999999997904    60.00000000     0.00000000
 B      2   1   3     4.999999997904   107.99999999   259.18768301
 B      3   1   2     4.999999997904   108.00000002   100.81231695
 B      1   2   3     4.999999997904   108.00000002   100.81231695
 B      3   1   2     4.999999997904    60.00000003   138.18968510
 B      1   2   3     4.999999997904    60.00000003   138.18968510
 B      2   1   3     4.999999997904   108.00000002   322.62263184
 B      5   3   1     4.999999997904   108.00000002   296.56505122
 B      6   1   2     4.999999997904   108.00000002   296.56505122
 B      4   2   1     4.999999997904   108.00000002     0.00000000

---------------------------
INTERNAL COORDINATES (A.U.)
---------------------------
 B      0   0   0     0.000000000000     0.00000000     0.00000000
 B      1   0   0     9.448630665645     0.00000000     0.00000000
 B      1   2   0     9.448630665645    60.00000000     0.00000000
 B      2   1   3     9.448630665645   107.99999999   259.18768301
 B      3   1   2     9.448630665645   108.00000002   100.81231695
 B      1   2   3     9.448630665645   108.00000002   100.81231695
 B      3   1   2     9.448630665645    60.00000003   138.18968510
 B      1   2   3     9.448630665645    60.00000003   138.18968510
 B      2   1   3     9.448630665645   108.00000002   322.62263184
 B      5   3   1     9.448630665645   108.00000002   296.56505122
 B      6   1   2     9.448630665645   108.00000002   296.56505122
 B      4   2   1     9.448630665645   108.00000002     0.00000000

---------------------
BASIS SET INFORMATION
---------------------
There are 1 groups of distinct atoms

 Group   1 Type B   : 7s4p1d contracted to 3s2p1d pattern {511/31/1}

Atom   0B    basis set group =>   1
Atom   1B    basis set group =>   1
Atom   2B    basis set group =>   1
Atom   3B    basis set group =>   1
Atom   4B    basis set group =>   1
Atom   5B    basis set group =>   1
Atom   6B    basis set group =>   1
Atom   7B    basis set group =>   1
Atom   8B    basis set group =>   1
Atom   9B    basis set group =>   1
Atom  10B    basis set group =>   1
Atom  11B    basis set group =>   1
---------------------------------
AUXILIARY/J BASIS SET INFORMATION
---------------------------------
There are 1 groups of distinct atoms

 Group   1 Type B   : 12s5p4d2f1g contracted to 6s4p3d1f1g pattern {711111/2111/211/2/1}

Atom   0B    basis set group =>   1
Atom   1B    basis set group =>   1
Atom   2B    basis set group =>   1
Atom   3B    basis set group =>   1
Atom   4B    basis set group =>   1
Atom   5B    basis set group =>   1
Atom   6B    basis set group =>   1
Atom   7B    basis set group =>   1
Atom   8B    basis set group =>   1
Atom   9B    basis set group =>   1
Atom  10B    basis set group =>   1
Atom  11B    basis set group =>   1


           ************************************************************
           *        Program running with 8 parallel MPI-processes     *
           *              working on a common directory               *
           ************************************************************
------------------------------------------------------------------------------
                             ORCA STARTUP CALCULATIONS
                           -- RI-GTO INTEGRALS CHOSEN --
------------------------------------------------------------------------------
------------------------------------------------------------------------------
                   ___                                                        
                  /   \      - P O W E R E D   B Y -                         
                 /     \                                                     
                 |  |  |   _    _      __       _____    __    __             
                 |  |  |  | |  | |    /  \     |  _  \  |  |  /  |          
                  \  \/   | |  | |   /    \    | | | |  |  | /  /          
                 / \  \   | |__| |  /  /\  \   | |_| |  |  |/  /          
                |  |  |   |  __  | /  /__\  \  |    /   |      \           
                |  |  |   | |  | | |   __   |  |    \   |  |\   \          
                \     /   | |  | | |  |  |  |  | |\  \  |  | \   \       
                 \___/    |_|  |_| |__|  |__|  |_| \__\ |__|  \__/        
                                                                              
                      - O R C A' S   B I G   F R I E N D -                    
                                      &                                       
                       - I N T E G R A L  F E E D E R -                       
                                                                              
 v1 FN, 2020, v2 2021, v3 2022-2024                                           
------------------------------------------------------------------------------


----------------------
SHARK INTEGRAL PACKAGE
----------------------

Number of atoms                             ...     12
Number of basis functions                   ...    168
Number of shells                            ...     72
Maximum angular momentum                    ...      2
Integral batch strategy                     ... SHARK/LIBINT Hybrid
RI-J (if used) integral strategy            ... SPLIT-RIJ (Revised 2003 algorithm where possible)
Printlevel                                  ...      1
Contraction scheme used                     ... SEGMENTED contraction
Prescreening option                         ... SCHWARTZ
   Thresh                                   ... 2.500e-11
   Tcut                                     ... 2.500e-12
   Tpresel                                  ... 2.500e-12 
Coulomb Range Separation                    ... NOT USED
Exchange Range Separation                   ... NOT USED
Multipole approximations                    ... NOT USED
Finite Nucleus Model                        ... NOT USED
CABS basis                                  ... NOT available
Auxiliary Coulomb fitting basis             ... AVAILABLE
   # of basis functions in Aux-J            ...    588
   # of shells in Aux-J                     ...    180
   Maximum angular momentum in Aux-J        ...      4
Auxiliary J/K fitting basis                 ... NOT available
Auxiliary Correlation fitting basis         ... NOT available
Auxiliary 'external' fitting basis          ... NOT available

Checking pre-screening integrals            ... done (  0.0 sec) Dimension = 72
   => SHARK Basis and OBASIS are compatible. Storing Pre-screening
Shell pair information
Shell pair cut-off parameter TPreSel        ...   2.5e-12
Total number of shell pairs                 ...      2628
Shell pairs after pre-screening             ...      1938
Total number of primitive shell pairs       ...     10596
Primitive shell pairs kept                  ...      4662
          la=0 lb=0:    480 shell pairs
          la=1 lb=0:    708 shell pairs
          la=1 lb=1:    264 shell pairs
          la=2 lb=0:    228 shell pairs
          la=2 lb=1:    216 shell pairs
          la=2 lb=2:     42 shell pairs

Checking whether 4 symmetric matrices of dimension 168 fit in memory
:Max Core in MB      =   2500.00
 MB in use           =      5.80
 MB left             =   2494.20
 MB needed           =      0.43
 Data fit in memory  = YES
Calculating RI/J V-Matrix + Cholesky decomp.... done (  0.0 sec)
Calculating Nuclear repulsion               ... done (  0.0 sec) ENN=    136.780154077878 Eh

Diagonalization of the overlap matrix:
Smallest eigenvalue                        ... 1.554e-01
Time for diagonalization                   ...    0.003 sec
Threshold for overlap eigenvalues          ... 1.000e-07
Number of eigenvalues below threshold      ... 0
Time for construction of square roots      ...    0.002 sec
Total time needed                          ...    0.008 sec

-------------------
DFT GRID GENERATION
-------------------

General Integration Accuracy     IntAcc      ... 4.388
Radial Grid Type                 RadialGrid  ... OptM3 with GC (2021)
Angular Grid (max. ang.)         AngularGrid ... 4 (Lebedev-302)
Angular grid pruning method      GridPruning ... 4 (adaptive)
Weight generation scheme         WeightScheme... mBecke (2022)
Basis function cutoff            BFCut       ... 1.0000e-11
Integration weight cutoff        WCut        ... 1.0000e-14
Partially contracted basis set               ... off
Rotationally invariant grid construction     ... off
Angular grids for H and He will be reduced by one unit

Total number of grid points                  ...    73620
Total number of batches                      ...     1157
Average number of points per batch           ...       63
Average number of grid points per atom       ...     6135
Grids setup in   0.9 sec
Initializing property integral containers    ... done (  0.0 sec)

SHARK setup successfully completed in   1.1 seconds

Maximum memory used throughout the entire STARTUP-calculation: 19.0 MB


           ************************************************************
           *        Program running with 8 parallel MPI-processes     *
           *              working on a common directory               *
           ************************************************************
-------------------------------------------------------------------------------
                                 ORCA GUESS
                   Start orbitals & Density for SCF / CASSCF
-------------------------------------------------------------------------------

------------
SCF SETTINGS
------------
Hamiltonian:
 Density Functional     Method          .... DFT(GTOs)
 Exchange Functional    Exchange        .... B88
   X-Alpha parameter    XAlpha          ....  0.666667
   Becke's b parameter  XBeta           ....  0.004200
 Correlation Functional Correlation     .... P86
 LDA part of GGA corr.  LDAOpt          .... PW91-LDA
 Gradients option       PostSCFGGA      .... off
   NL short-range parameter             ....  4.400000
 RI-approximation to the Coulomb term is turned on
   Number of AuxJ basis functions       .... 588


General Settings:
 Integral files         IntName         .... icosahedron_nn5.00
 Hartree-Fock type      HFTyp           .... RHF
 Total Charge           Charge          ....    0
 Multiplicity           Mult            ....    1
 Number of Electrons    NEL             ....   60
 Basis Dimension        Dim             ....  168
 Nuclear Repulsion      ENuc            ....    136.7801540779 Eh

Convergence Acceleration:
 AO-DIIS                CNVDIIS         .... on
   Start iteration      DIISMaxIt       ....     0
   Startup error        DIISStart       ....  0.200000
   # of expansion vecs  DIISMaxEq       ....     5
   Bias factor          DIISBfac        ....   1.050
   Max. coefficient     DIISMaxC        ....  10.000
 MO-DIIS                CNVKDIIS        .... off
 Trust-Rad. Augm. Hess. CNVTRAH         .... auto
   Auto Start mean grad. ratio tolernc. ....  1.125000
   Auto Start start iteration           ....    50
   Auto Start num. interpolation iter.  ....    10
   Max. Number of Micro iterations      ....    24
   Max. Number of Macro iterations      .... Maxiter - #DIIS iter
   Number of Davidson start vectors     ....     2
   Converg. threshold    (grad. norm)   ....   1.000e-05
   Grad. Scal. Fac. for Micro threshold ....   0.100
   Minimum threshold for Micro iter.    ....   1.000e-02
   NR start threshold (gradient norm)   ....   1.000e-04
   Initial trust radius                 ....   0.400
   Minimum AH scaling param. (alpha)    ....   1.000
   Maximum AH scaling param. (alpha)    .... 1000.000
   Quad. conv. algorithm                .... NR
   White noise on init. David. guess    .... on
   Maximum white noise                  ....   0.010
   Pseudo random numbers                .... off
   Inactive MOs                         .... canonical
   Orbital update algorithm             .... Taylor
   Preconditioner                       .... Diag
   Full preconditioner red. dimension   ....   250
 SOSCF                 CNVSOSCF           .... on
   Start iteration     SOSCFMaxIt         ....   150
   Startup grad/error  SOSCFStart         ....  0.001000
   Hessian update      SOSCFHessUp        .... L-BFGS
   Autom. constraints  SOSCFAutoConstrain .... off
 Level Shifting         CNVShift        .... on
   Level shift para.    LevelShift      ....    0.2500
   Turn off err/grad.   ShiftErr        ....    0.0000
 Zerner damping         CNVZerner       .... off
 Static damping         CNVDamp         .... on
   Fraction old density DampFac         ....    0.8500
   Max. Damping (<1)    DampMax         ....    0.9800
   Min. Damping (>=0)   DampMin         ....    0.0000
   Turn off err/grad.   DampErr         ....    0.0300

SCF Procedure:
 Maximum # iterations   MaxIter         ....   125
 SCF integral mode      SCFMode         .... Direct
   Integral package                     .... SHARK and LIBINT hybrid scheme
 Reset frequency        DirectResetFreq ....    20
 Integral Threshold     Thresh          ....  2.500e-11 Eh
 Primitive CutOff       TCut            ....  2.500e-12 Eh

Convergence Tolerance:
 Convergence Check Mode ConvCheckMode   .... Total+1el-Energy
 Convergence forced     ConvForced      .... 0
 Energy Change          TolE            ....  1.000e-08 Eh
 1-El. energy change                    ....  1.000e-05 Eh
 Orbital Gradient       TolG            ....  1.000e-05
 Orbital Rotation angle TolX            ....  1.000e-05
 DIIS Error             TolErr          ....  5.000e-07

------------------------------
INITIAL GUESS: MODEL POTENTIAL
------------------------------
Loading Hartree-Fock densities                     ... done
Calculating cut-offs                               ... done
Initializing the effective Hamiltonian             ... done
Setting up the integral package (SHARK)            ... done
Starting the Coulomb interaction                   ... done (   0.0 sec)
Making the grid                                    ... done (   0.3 sec)
Mapping shells                                     ... done
Starting the XC term evaluation                    ... done (   0.0 sec)
  promolecular density results
     # of electrons  =     60.000257808
     EX              =    -44.170628292
     EC              =     -1.560057208
     EX+EC           =    -45.730685499
Transforming the Hamiltonian                       ... done (   0.0 sec)
Diagonalizing the Hamiltonian                      ... done (   0.0 sec)
Back transforming the eigenvectors                 ... done (   0.0 sec)
Now organizing SCF variables                       ... done
                      ------------------
                      INITIAL GUESS DONE (   0.4 sec)
                      ------------------
             **** ENERGY FILE WAS UPDATED (icosahedron_nn5.00.en.tmp) ****
Finished Guess after   1.0 sec
Maximum memory used throughout the entire GUESS-calculation: 8.4 MB


           ************************************************************
           *        Program running with 8 parallel MPI-processes     *
           *              working on a common directory               *
           ************************************************************

-------------------------------------------------------------------------------------------
                                      ORCA LEAN-SCF
                              memory conserving SCF solver
-------------------------------------------------------------------------------------------

----------------------------------------D-I-I-S--------------------------------------------
Iteration    Energy (Eh)           Delta-E    RMSDP     MaxDP     DIISErr   Damp  Time(sec)
-------------------------------------------------------------------------------------------
               ***  Starting incremental Fock matrix formation  ***
    1    -295.3327466463293831     0.00e+00  1.54e-03  1.51e-02  1.83e-02  0.850   0.2
Warning: op=0 Small HOMO/LUMO gap (  -0.035) - skipping pre-diagonalization
         Will do a full diagonalization
    2    -295.3399261622618042    -7.18e-03  2.72e-03  2.32e-02  1.28e-02  0.850   0.2
                               ***Turning on AO-DIIS***
    3    -295.3460733850478164    -6.15e-03  2.13e-03  1.70e-02  5.84e-03  0.850   0.2
    4    -295.3438558928971815     2.22e-03  1.14e-02  8.64e-02  7.35e-03  0.000   0.2
    5    -295.2275726672990004     1.16e-01  7.32e-04  6.51e-03  5.44e-02  0.000   0.2
    6    -295.2398713124093774    -1.23e-02  8.98e-05  7.90e-04  5.17e-02  0.850   0.2
    7    -295.2414392079435856    -1.57e-03  1.63e-04  1.40e-03  5.13e-02  0.850   0.3
    8    -295.2442566402181683    -2.82e-03  2.68e-04  2.27e-03  5.07e-02  0.850   0.3
    9    -295.2488418513354418    -4.59e-03  3.12e-03  2.35e-02  4.97e-02  0.850   0.2
   10    -295.2917139184351072    -4.29e-02  2.63e-03  2.11e-02  3.56e-02  0.850   0.3
   11    -295.3203491590703607    -2.86e-02  2.27e-03  1.80e-02  2.35e-02  0.850   0.2
   12    -295.3365783978483705    -1.62e-02  1.30e-02  1.01e-01  1.38e-02  0.000   0.2
   13    -295.2823229705140875     5.43e-02  8.22e-04  9.32e-03  3.35e-02  0.000   0.3
   14    -295.2889901295071695    -6.67e-03  9.12e-05  6.47e-04  3.18e-02  0.850   0.2
   15    -295.2900504037135079    -1.06e-03  1.61e-04  1.05e-03  3.15e-02  0.850   0.2
   16    -295.2920115545751969    -1.96e-03  2.17e-04  1.45e-03  3.09e-02  0.850   0.2
   17    -295.2946687708208628    -2.66e-03  2.38e-03  1.86e-02  3.02e-02  0.850   0.2
   18    -295.3186936576893231    -2.40e-02  1.92e-03  1.51e-02  2.23e-02  0.850   0.3
   19    -295.3339509035693027    -1.53e-02  1.06e-02  7.85e-02  1.54e-02  0.000   0.5
   20    -295.3185875591623244     1.54e-02  5.78e-04  6.57e-03  2.71e-02  0.000   0.2
               *** Restarting incremental Fock matrix formation ***
                             ****Resetting DIIS****
Warning: op=0 Small HOMO/LUMO gap (  -0.046) - skipping pre-diagonalization
         Will do a full diagonalization
   21    -295.3190177233473150    -4.30e-04  3.05e-02  2.05e-01  2.66e-02  0.000   0.3
   22    -294.9475665820776840     3.71e-01  1.07e-02  1.20e-01  7.37e-02  0.000   0.4
   23    -295.1181317324380871    -1.71e-01  6.87e-04  4.05e-03  5.27e-02  0.850   0.4
   24    -295.1333391276768907    -1.52e-02  1.14e-03  7.31e-03  5.14e-02  0.850   0.3
   25    -295.1587898326828281    -2.55e-02  1.48e-03  9.85e-03  4.91e-02  0.850   0.2
   26    -295.1901052979745828    -3.13e-02  2.41e-03  1.78e-02  4.58e-02  0.850   0.2
   27    -295.2352311652467733    -4.51e-02  2.46e-03  1.73e-02  4.08e-02  0.850   0.3
   28    -295.2743604151314685    -3.91e-02  1.84e-03  1.23e-02  3.30e-02  0.850   0.3
   29    -295.2979333750599835    -2.36e-02  1.42e-03  9.17e-03  2.84e-02  0.850   0.2
   30    -295.3126328668769247    -1.47e-02  7.26e-03  4.58e-02  2.39e-02  0.000   0.2
   31    -295.3471663910064535    -3.45e-02  4.36e-03  2.47e-02  6.64e-03  0.000   0.2
   32    -295.3438915888813199     3.27e-03  1.19e-03  1.36e-02  1.07e-02  0.000   0.3
   33    -295.3452270081299957    -1.34e-03  3.53e-04  3.19e-03  9.36e-03  0.000   0.3
   34    -295.3459440211969422    -7.17e-04  2.14e-04  1.41e-03  8.51e-03  0.000   0.3
   35    -295.3464930507597046    -5.49e-04  6.33e-04  4.51e-03  7.80e-03  0.000   0.2
   36    -295.3470265494819387    -5.33e-04  2.69e-03  1.76e-02  6.87e-03  0.000   0.2
   37    -295.3483050889838069    -1.28e-03  1.37e-03  1.03e-02  5.64e-03  0.000   0.3
   38    -295.3489303148451199    -6.25e-04  3.57e-04  4.34e-03  3.51e-03  0.000   0.3
   39    -295.3490864574263242    -1.56e-04  1.26e-04  9.64e-04  3.03e-03  0.000   0.3
   40    -295.3491943490910216    -1.08e-04  1.14e-04  7.40e-04  2.66e-03  0.000   0.2
               *** Restarting incremental Fock matrix formation ***
                             ****Resetting DIIS****
Warning: op=0 Small HOMO/LUMO gap (  -0.004) - skipping pre-diagonalization
         Will do a full diagonalization
   41    -295.3492954874861880    -1.01e-04  4.74e-03  2.71e-02  2.28e-03  0.000   0.3
   42    -295.3340828074739193     1.52e-02  8.96e-04  9.58e-03  1.76e-02  0.000   0.2
   43    -295.3375628616350923    -3.48e-03  4.27e-04  2.56e-03  1.53e-02  0.000   0.2
   44    -295.3399709431965903    -2.41e-03  3.65e-04  2.19e-03  1.36e-02  0.000   0.3
   45    -295.3418653309832962    -1.89e-03  3.29e-04  1.95e-03  1.21e-02  0.000   0.3
   46    -295.3433876282380197    -1.52e-03  2.40e-03  1.63e-02  1.09e-02  0.000   0.3
   47    -295.3490674274969479    -5.68e-03  3.11e-03  2.16e-02  4.34e-03  0.000   0.2
   48    -295.3443399721024889     4.73e-03  8.73e-04  1.07e-02  1.50e-02  0.000   0.2
   49    -295.3451729074170089    -8.33e-04  3.14e-04  2.68e-03  1.36e-02  0.000   0.4
   50    -295.3459565684138397    -7.84e-04  2.41e-04  1.97e-03  1.22e-02  0.000   0.2

       ******************************************************************************
       ***                                                                        ***
       ***                               Auto-TRAH                                ***
       ***                               ---------                                ***
       *** the maximum gradient error decreased on average only by a factor   1.0 ***
       *** during the last  10 iterations                                         ***
       ***                                                                        ***
       ***               Leaving SCF to start the TRAH-SCF procedure              ***
       ***                                                                        ***
       ******************************************************************************

 --------------------------------------------------------------------------------------------
   Iter.        energy            ||Error||_2        Shift      TRadius  Mac/Mic        Rej.
 --------------------------------------------------------------------------------------------
    0       -295.346690190001     1.230255e-01                     0.400 (TRAH MAcro)   No
WARNING: 42 diagonal Hessian elements are negative!
WARNING : negative HOMO - LUMO gap : -0.019499
WARNING : negative HOMO - LUMO gap : -0.019499
    0     dE    -2.813684e-03     2.779958e-02    -5.6128e-03      0.051 (TRAH MIcro)
    0     dE    -2.938338e-03     9.145952e-03    -5.8590e-03      0.055 (TRAH MIcro)
    1       -295.349563591890     1.125452e-02                     0.480 (TRAH MAcro)   No
WARNING: 19 diagonal Hessian elements are negative!
WARNING : negative HOMO - LUMO gap : -0.001859
WARNING : negative HOMO - LUMO gap : -0.001859
    1     dE    -1.263909e-05     7.374825e-03    -2.5278e-05      0.004 (TRAH MIcro)
    1     dE    -1.468676e-05     6.508499e-03    -2.9372e-05      0.006 (TRAH MIcro)
    1     dE    -1.646758e-05     6.177516e-03    -3.2932e-05      0.010 (TRAH MIcro)
    1     dE    -2.314123e-05     7.049840e-03    -4.6250e-05      0.026 (TRAH MIcro)
    1     dE    -2.899383e-05     7.242231e-03    -5.7885e-05      0.042 (TRAH MIcro)
    1     dE    -5.611831e-05     6.716625e-03    -1.1080e-04      0.114 (TRAH MIcro)
    1     dE    -6.666771e-05     3.650924e-03    -1.3065e-04      0.143 (TRAH MIcro)
    1     dE    -6.755316e-05     3.427262e-03    -1.3232e-04      0.145 (TRAH MIcro)
    1     dE    -6.957019e-05     3.481536e-03    -1.3617e-04      0.148 (TRAH MIcro)
    1     dE    -7.334677e-05     2.181699e-03    -1.4324e-04      0.155 (TRAH MIcro)
    1     dE    -7.377461e-05     2.162294e-03    -1.4398e-04      0.157 (TRAH MIcro)
    1     dE    -8.033604e-05     3.980265e-03    -1.5539e-04      0.184 (TRAH MIcro)
    1     dE    -8.338301e-05     4.124118e-03    -1.6038e-04      0.200 (TRAH MIcro)
    1     dE    -8.750000e-05     5.883741e-03    -1.6668e-04      0.223 (TRAH MIcro)
    1     dE    -1.178334e-04     9.307991e-03    -2.0545e-04      0.384 (TRAH MIcro)
    1     dE    -1.612952e-04     5.451575e-03    -4.9890e-04      0.480 (TRAH MIcro)
    1     dE    -1.739424e-04     5.832164e-03    -5.8179e-04      0.480 (TRAH MIcro)
    1     dE    -1.839772e-04     2.232806e-03    -6.7167e-04      0.480 (TRAH MIcro)
    1     dE    -2.578109e-04     6.278568e-03    -1.1288e-03      0.479 (TRAH MIcro)
    1     dE    -2.521493e-04     6.304686e-03    -1.9730e-03      0.375 (TRAH MIcro)
    1     dE    -2.710268e-04     6.821817e-03    -2.0371e-03      0.389 (TRAH MIcro)
    1     dE    -3.095547e-04     6.245572e-03    -2.1497e-03      0.416 (TRAH MIcro)
    1     dE    -3.400429e-04     2.413744e-03    -2.2519e-03      0.433 (TRAH MIcro)
 ---------------------------------
          TRAH Step control 
 ---------------------------------
  predicted energy change =    -3.400428870938e-04
  actual energy  change   =     1.458166139969e-03
  energy change ratio     = -4.288183
  old trust radius        = 0.480000
  new trust radius        = 0.321600
  reject step?            = YES
    2       -295.348105425750     1.125452e-02                     0.322 (TRAH MAcro)  Yes
    3       -295.348105425750     9.215710e-02                     0.322 (TRAH MAcro)   No
WARNING: 34 diagonal Hessian elements are negative!
WARNING : negative HOMO - LUMO gap : -0.012405
WARNING : negative HOMO - LUMO gap : -0.012405
    3     dE    -1.456187e-03     2.322613e-02    -2.9088e-03      0.035 (TRAH MIcro)
    3     dE    -1.526102e-03     1.194622e-02    -3.0474e-03      0.040 (TRAH MIcro)
    3     dE    -1.532944e-03     1.047349e-02    -3.0607e-03      0.041 (TRAH MIcro)
    3     dE    -1.544067e-03     7.828666e-03    -3.0830e-03      0.041 (TRAH MIcro)
    4       -295.349654031035     8.234918e-03                     0.386 (TRAH MAcro)   No
WARNING: 20 diagonal Hessian elements are negative!
WARNING : negative HOMO - LUMO gap : -0.001494
WARNING : negative HOMO - LUMO gap : -0.001494
    4     dE    -4.978530e-06     7.426543e-03    -9.9570e-06      0.003 (TRAH MIcro)
    4     dE    -1.050515e-05     7.263390e-03    -2.1008e-05      0.009 (TRAH MIcro)
    4     dE    -1.175296e-05     7.923420e-03    -2.3503e-05      0.011 (TRAH MIcro)
    4     dE    -2.543250e-05     1.078082e-02    -5.0769e-05      0.043 (TRAH MIcro)
    4     dE    -2.758030e-05     1.084346e-02    -5.5032e-05      0.048 (TRAH MIcro)
    4     dE    -4.859787e-05     1.071706e-02    -9.6207e-05      0.101 (TRAH MIcro)
    4     dE    -5.262352e-05     1.023208e-02    -1.0386e-04      0.116 (TRAH MIcro)
    4     dE    -7.070948e-05     6.036172e-03    -1.3813e-04      0.154 (TRAH MIcro)
    4     dE    -7.634196e-05     5.391885e-03    -1.4882e-04      0.161 (TRAH MIcro)
    4     dE    -8.603437e-05     5.892316e-03    -1.6792e-04      0.157 (TRAH MIcro)
    4     dE    -9.718783e-05     3.048157e-03    -1.8975e-04      0.156 (TRAH MIcro)
    4     dE    -9.856441e-05     2.893322e-03    -1.9248e-04      0.155 (TRAH MIcro)
    4     dE    -1.015619e-04     1.759429e-03    -1.9829e-04      0.156 (TRAH MIcro)
    4     dE    -1.017817e-04     1.639216e-03    -1.9867e-04      0.157 (TRAH MIcro)
    4     dE    -1.024688e-04     9.219686e-04    -1.9989e-04      0.159 (TRAH MIcro)
    4     dE    -1.029641e-04     8.159648e-04    -2.0076e-04      0.160 (TRAH MIcro)
    5       -295.349737696186     1.039697e-02                     0.463 (TRAH MAcro)   No
WARNING: 18 diagonal Hessian elements are negative!
WARNING : negative HOMO - LUMO gap : -0.001901
WARNING : negative HOMO - LUMO gap : -0.001901
    5     dE    -1.419217e-05     5.141373e-03    -2.8384e-05      0.004 (TRAH MIcro)
    5     dE    -1.525017e-05     4.477966e-03    -3.0499e-05      0.005 (TRAH MIcro)
    5     dE    -1.732454e-05     2.463826e-03    -3.4647e-05      0.007 (TRAH MIcro)
    5     dE    -1.784214e-05     1.510251e-03    -3.5682e-05      0.008 (TRAH MIcro)
    5     dE    -1.811947e-05     1.420963e-03    -3.6237e-05      0.007 (TRAH MIcro)
    5     dE    -1.858943e-05     1.534765e-03    -3.7177e-05      0.007 (TRAH MIcro)
    5     dE    -1.915351e-05     1.966196e-03    -3.8304e-05      0.009 (TRAH MIcro)
    5     dE    -2.253872e-05     2.505615e-03    -4.5001e-05      0.041 (TRAH MIcro)
    5     dE    -2.416937e-05     1.543786e-03    -4.8186e-05      0.056 (TRAH MIcro)
    5     dE    -2.539601e-05     1.788489e-03    -5.0571e-05      0.066 (TRAH MIcro)
    5     dE    -2.618876e-05     1.409692e-03    -5.2105e-05      0.072 (TRAH MIcro)
    5     dE    -2.660865e-05     1.687687e-03    -5.2938e-05      0.073 (TRAH MIcro)
    5     dE    -3.035124e-05     1.988501e-03    -6.0322e-05      0.079 (TRAH MIcro)
    5     dE    -3.096206e-05     2.264276e-03    -6.1510e-05      0.082 (TRAH MIcro)
    5     dE    -4.731471e-05     5.071524e-03    -9.0951e-05      0.201 (TRAH MIcro)
    5     dE    -1.010690e-04     7.435919e-03    -2.3302e-04      0.463 (TRAH MIcro)
    5     dE    -1.164770e-04     3.641762e-03    -3.8820e-04      0.463 (TRAH MIcro)
    5     dE    -1.183659e-04     3.818529e-03    -4.0397e-04      0.463 (TRAH MIcro)
    5     dE    -1.228689e-04     3.186474e-03    -4.3606e-04      0.463 (TRAH MIcro)
    5     dE    -1.263744e-04     3.714454e-03    -4.6150e-04      0.463 (TRAH MIcro)
    5     dE    -1.527890e-04     1.049004e-02    -6.7787e-04      0.463 (TRAH MIcro)
    5     dE    -1.463120e-04     9.700692e-03    -1.1537e-03      0.373 (TRAH MIcro)
    5     dE    -2.756086e-04     1.253246e-02    -1.9243e-03      0.463 (TRAH MIcro)
 ---------------------------------
          TRAH Step control 
 ---------------------------------
  predicted energy change =    -2.756085692705e-04
  actual energy  change   =     2.683160972651e-03
  energy change ratio     = -9.735405
  old trust radius        = 0.463104
  new trust radius        = 0.310280
  reject step?            = YES
    6       -295.347054535213     1.039697e-02                     0.310 (TRAH MAcro)  Yes
    7       -295.347054535213     1.265073e-01                     0.310 (TRAH MAcro)   No
WARNING: 46 diagonal Hessian elements are negative!
WARNING : negative HOMO - LUMO gap : -0.018911
WARNING : negative HOMO - LUMO gap : -0.018911
    7     dE    -2.599046e-03     2.779463e-02    -5.1878e-03      0.045 (TRAH MIcro)
    7     dE    -2.699755e-03     1.703781e-02    -5.3867e-03      0.049 (TRAH MIcro)
    7     dE    -2.725115e-03     1.369215e-02    -5.4366e-03      0.050 (TRAH MIcro)
    7     dE    -2.732566e-03     1.304081e-02    -5.4514e-03      0.050 (TRAH MIcro)
    7     dE    -2.743900e-03     1.263371e-02    -5.4729e-03      0.052 (TRAH MIcro)
    7     dE    -2.764000e-03     1.066974e-02    -5.5082e-03      0.060 (TRAH MIcro)
    7     dE    -2.789284e-03     6.990666e-03    -5.5490e-03      0.073 (TRAH MIcro)
    8       -295.349807280460     7.598732e-03                     0.372 (TRAH MAcro)   No
WARNING: 18 diagonal Hessian elements are negative!
WARNING : negative HOMO - LUMO gap : -0.001199
WARNING : negative HOMO - LUMO gap : -0.001199
    8     dE    -7.519639e-06     6.191246e-03    -1.5039e-05      0.005 (TRAH MIcro)
    8     dE    -1.162637e-05     5.369693e-03    -2.3251e-05      0.008 (TRAH MIcro)
    8     dE    -1.389466e-05     5.555988e-03    -2.7786e-05      0.011 (TRAH MIcro)
    8     dE    -1.926031e-05     6.487859e-03    -3.8505e-05      0.020 (TRAH MIcro)
    8     dE    -2.552804e-05     8.102634e-03    -5.1004e-05      0.032 (TRAH MIcro)
    8     dE    -4.211050e-05     9.916676e-03    -8.3874e-05      0.064 (TRAH MIcro)
    8     dE    -6.875617e-05     1.062157e-02    -1.3550e-04      0.122 (TRAH MIcro)
    8     dE    -9.926204e-05     5.663494e-03    -1.9195e-04      0.185 (TRAH MIcro)
    8     dE    -9.973313e-05     5.653960e-03    -1.9279e-04      0.186 (TRAH MIcro)
    8     dE    -1.112069e-04     7.476153e-03    -2.1407e-04      0.197 (TRAH MIcro)
    8     dE    -1.454524e-04     5.954778e-03    -2.7467e-04      0.243 (TRAH MIcro)
    8     dE    -1.479502e-04     5.672226e-03    -2.7915e-04      0.245 (TRAH MIcro)
    8     dE    -1.492458e-04     4.807449e-03    -2.8121e-04      0.248 (TRAH MIcro)
    8     dE    -1.901906e-04     6.144383e-03    -3.4341e-04      0.328 (TRAH MIcro)
    8     dE    -2.174782e-04     6.789563e-03    -4.4348e-04      0.372 (TRAH MIcro)
    8     dE    -2.802825e-04     5.221063e-03    -1.6525e-03      0.372 (TRAH MIcro)
    8     dE    -2.944715e-04     5.261763e-03    -1.8054e-03      0.372 (TRAH MIcro)
    8     dE    -3.009609e-04     5.359885e-03    -1.9358e-03      0.372 (TRAH MIcro)
    8     dE    -2.846706e-04     3.515075e-03    -2.5898e-03      0.324 (TRAH MIcro)
    8     dE    -3.464092e-04     4.569556e-03    -2.3170e-03      0.372 (TRAH MIcro)
    8     dE    -3.103480e-04     3.943209e-03    -2.8395e-03      0.322 (TRAH MIcro)
    8     dE    -3.280358e-04     3.195382e-03    -2.9168e-03      0.332 (TRAH MIcro)
    8     dE    -3.677225e-04     4.888257e-03    -3.1532e-03      0.344 (TRAH MIcro)
 ---------------------------------
          TRAH Step control 
 ---------------------------------
  predicted energy change =    -3.677225464023e-04
  actual energy  change   =     9.067179121303e-05
  energy change ratio     = -0.246577
  old trust radius        = 0.372336
  new trust radius        = 0.249465
  reject step?            = YES
    9       -295.349716608669     7.598732e-03                     0.249 (TRAH MAcro)  Yes
   10       -295.349716608669     4.756584e-02                     0.249 (TRAH MAcro)   No
WARNING: 23 diagonal Hessian elements are negative!
WARNING : negative HOMO - LUMO gap : -0.007793
WARNING : negative HOMO - LUMO gap : -0.007793
   10     dE    -3.720223e-04     1.277676e-02    -7.4382e-04      0.017 (TRAH MIcro)
   10     dE    -3.872140e-04     9.131718e-03    -7.7414e-04      0.019 (TRAH MIcro)
   10     dE    -3.967724e-04     6.198968e-03    -7.9323e-04      0.020 (TRAH MIcro)
   10     dE    -3.988403e-04     5.523761e-03    -7.9736e-04      0.020 (TRAH MIcro)
   10     dE    -3.995733e-04     5.463393e-03    -7.9883e-04      0.020 (TRAH MIcro)
   10     dE    -4.101966e-04     5.937538e-03    -8.1945e-04      0.034 (TRAH MIcro)
   10     dE    -4.219417e-04     3.097317e-03    -8.4077e-04      0.061 (TRAH MIcro)
[...]
      px      :     0.646852
      py      :     0.583956
      dz2     :     0.009423  d :     0.064765
      dxz     :     0.009793
      dyz     :     0.014279
      dx2y2   :     0.016529
      dxy     :     0.014741

 11 B s       :     2.604493  s :     2.604493
      pz      :     0.777512  p :     2.303384
      px      :     0.710479
      py      :     0.815393
      dz2     :     0.015195  d :     0.072080
      dxz     :     0.014092
      dyz     :     0.012823
      dx2y2   :     0.014724
      dxy     :     0.015246



                     *******************************
                     * LOEWDIN POPULATION ANALYSIS *
                     *******************************

----------------------
LOEWDIN ATOMIC CHARGES
----------------------
   0 B :    0.018251
   1 B :   -0.095028
   2 B :    0.015833
   3 B :    0.011249
   4 B :    0.024274
   5 B :    0.025589
   6 B :    0.011156
   7 B :    0.024332
   8 B :    0.025555
   9 B :    0.018245
  10 B :   -0.095135
  11 B :    0.015682

-------------------------------
LOEWDIN REDUCED ORBITAL CHARGES
-------------------------------
  0 B s       :     2.596640  s :     2.596640
      pz      :     0.687591  p :     2.202354
      px      :     0.778013
      py      :     0.736750
      dz2     :     0.034459  d :     0.182755
      dxz     :     0.043051
      dyz     :     0.029998
      dx2y2   :     0.032977
      dxy     :     0.042270

  1 B s       :     2.743410  s :     2.743410
      pz      :     0.701118  p :     2.188731
      px      :     0.725466
      py      :     0.762147
      dz2     :     0.023436  d :     0.162887
      dxz     :     0.028403
      dyz     :     0.039179
      dx2y2   :     0.042034
      dxy     :     0.029835

  2 B s       :     2.599449  s :     2.599449
      pz      :     0.747600  p :     2.202357
      px      :     0.689634
      py      :     0.765123
      dz2     :     0.041841  d :     0.182362
      dxz     :     0.027385
      dyz     :     0.036331
      dx2y2   :     0.035476
      dxy     :     0.041329

  3 B s       :     2.604505  s :     2.604505
      pz      :     0.691803  p :     2.202431
      px      :     0.774705
      py      :     0.735922
      dz2     :     0.034841  d :     0.181816
      dxz     :     0.043012
      dyz     :     0.029976
      dx2y2   :     0.032102
      dxy     :     0.041885

  4 B s       :     2.589339  s :     2.589339
      pz      :     0.786870  p :     2.202492
      px      :     0.735812
      py      :     0.679810
      dz2     :     0.035249  d :     0.183895
      dxz     :     0.034805
      dyz     :     0.040536
      dx2y2   :     0.040458
      dxy     :     0.032847

  5 B s       :     2.588027  s :     2.588027
      pz      :     0.747588  p :     2.202430
      px      :     0.684783
      py      :     0.770059
      dz2     :     0.042659  d :     0.183954
      dxz     :     0.027343
      dyz     :     0.036835
      dx2y2   :     0.035639
      dxy     :     0.041477

  6 B s       :     2.604371  s :     2.604371
      pz      :     0.692274  p :     2.202602
      px      :     0.774363
      py      :     0.735966
      dz2     :     0.034868  d :     0.181871
      dxz     :     0.043064
      dyz     :     0.029990
      dx2y2   :     0.032050
      dxy     :     0.041898

  7 B s       :     2.589588  s :     2.589588
      pz      :     0.787005  p :     2.202315
      px      :     0.735545
      py      :     0.679766
      dz2     :     0.035213  d :     0.183765
      dxz     :     0.034807
      dyz     :     0.040542
      dx2y2   :     0.040375
      dxy     :     0.032827

  8 B s       :     2.588330  s :     2.588330
      pz      :     0.747605  p :     2.202329
      px      :     0.684875
      py      :     0.769849
      dz2     :     0.042628  d :     0.183787
      dxz     :     0.027313
      dyz     :     0.036790
      dx2y2   :     0.035619
      dxy     :     0.041437

  9 B s       :     2.596448  s :     2.596448
      pz      :     0.688021  p :     2.202434
      px      :     0.778037
      py      :     0.736377
      dz2     :     0.034530  d :     0.182873
      dxz     :     0.043114
      dyz     :     0.029995
      dx2y2   :     0.033004
      dxy     :     0.042229

 10 B s       :     2.740588  s :     2.740588
      pz      :     0.702862  p :     2.191012
      px      :     0.726169
      py      :     0.761980
      dz2     :     0.023660  d :     0.163536
      dxz     :     0.028563
      dyz     :     0.039283
      dx2y2   :     0.042107
      dxy     :     0.029922

 11 B s       :     2.599483  s :     2.599483
      pz      :     0.747629  p :     2.202462
      px      :     0.689935
      py      :     0.764898
      dz2     :     0.041833  d :     0.182373
      dxz     :     0.027375
      dyz     :     0.036344
      dx2y2   :     0.035443
      dxy     :     0.041378



                      *****************************
                      * MAYER POPULATION ANALYSIS *
                      *****************************

  NA   - Mulliken gross atomic population
  ZA   - Total nuclear charge
  QA   - Mulliken gross atomic charge
  VA   - Mayer's total valence
  BVA  - Mayer's bonded valence
  FA   - Mayer's free valence

  ATOM       NA         ZA         QA         VA         BVA        FA
  0 B      4.9794     5.0000     0.0206     4.1865     4.1865     0.0000
  1 B      5.1084     5.0000    -0.1084     3.3182     3.3182     0.0000
  2 B      4.9797     5.0000     0.0203     4.1661     4.1661    -0.0000
  3 B      4.9804     5.0000     0.0196     4.1303     4.1303    -0.0000
  4 B      4.9763     5.0000     0.0237     4.2332     4.2332    -0.0000
  5 B      4.9769     5.0000     0.0231     4.2431     4.2431    -0.0000
  6 B      4.9806     5.0000     0.0194     4.1322     4.1322     0.0000
  7 B      4.9770     5.0000     0.0230     4.2331     4.2331     0.0000
  8 B      4.9782     5.0000     0.0218     4.2442     4.2442     0.0000
  9 B      4.9786     5.0000     0.0214     4.1859     4.1859    -0.0000
 10 B      5.1047     5.0000    -0.1047     3.3227     3.3227     0.0000
 11 B      4.9800     5.0000     0.0200     4.1668     4.1668    -0.0000

  Mayer bond orders larger than 0.100000
B(  0-B ,  1-B ) :   0.3329 B(  0-B ,  2-B ) :   0.9044 B(  0-B ,  3-B ) :   0.1642 
B(  0-B ,  4-B ) :   0.1769 B(  0-B ,  5-B ) :   0.5316 B(  0-B ,  6-B ) :   0.4866 
B(  0-B ,  7-B ) :   0.8636 B(  0-B ,  8-B ) :   0.1572 B(  0-B ,  9-B ) :   0.1847 
B(  0-B , 10-B ) :   0.2021 B(  0-B , 11-B ) :   0.1823 B(  1-B ,  2-B ) :   0.3200 
B(  1-B ,  3-B ) :   0.2997 B(  1-B ,  4-B ) :   0.1873 B(  1-B ,  5-B ) :   0.1853 
B(  1-B ,  6-B ) :   0.2179 B(  1-B ,  7-B ) :   0.3706 B(  1-B ,  8-B ) :   0.3789 
B(  1-B ,  9-B ) :   0.2017 B(  1-B , 10-B ) :   0.6153 B(  1-B , 11-B ) :   0.2085 
B(  2-B ,  3-B ) :   0.1650 B(  2-B ,  4-B ) :   0.5204 B(  2-B ,  5-B ) :   0.1767 
B(  2-B ,  6-B ) :   0.4782 B(  2-B ,  7-B ) :   0.1588 B(  2-B ,  8-B ) :   0.8660 
B(  2-B ,  9-B ) :   0.1823 B(  2-B , 10-B ) :   0.2080 B(  2-B , 11-B ) :   0.1865 
B(  3-B ,  4-B ) :   0.1801 B(  3-B ,  5-B ) :   0.1788 B(  3-B ,  6-B ) :   0.1896 
B(  3-B ,  7-B ) :   0.8896 B(  3-B ,  8-B ) :   0.8822 B(  3-B ,  9-B ) :   0.4859 
B(  3-B , 10-B ) :   0.2178 B(  3-B , 11-B ) :   0.4775 B(  4-B ,  5-B ) :   0.1563 
B(  4-B ,  6-B ) :   0.8881 B(  4-B ,  7-B ) :   0.1821 B(  4-B ,  8-B ) :   0.5486 
B(  4-B ,  9-B ) :   0.8621 B(  4-B , 10-B ) :   0.3710 B(  4-B , 11-B ) :   0.1604 
B(  5-B ,  6-B ) :   0.8805 B(  5-B ,  7-B ) :   0.5484 B(  5-B ,  8-B ) :   0.1822 
B(  5-B ,  9-B ) :   0.1586 B(  5-B , 10-B ) :   0.3800 B(  5-B , 11-B ) :   0.8647 
B(  6-B ,  7-B ) :   0.1805 B(  6-B ,  8-B ) :   0.1795 B(  6-B ,  9-B ) :   0.1652 
B(  6-B , 10-B ) :   0.2998 B(  6-B , 11-B ) :   0.1664 B(  7-B ,  8-B ) :   0.1556 
B(  7-B ,  9-B ) :   0.1765 B(  7-B , 10-B ) :   0.1878 B(  7-B , 11-B ) :   0.5197 
B(  8-B ,  9-B ) :   0.5312 B(  8-B , 10-B ) :   0.1862 B(  8-B , 11-B ) :   0.1767 
B(  9-B , 10-B ) :   0.3342 B(  9-B , 11-B ) :   0.9036 B( 10-B , 11-B ) :   0.3206 


-------
TIMINGS
-------

Total SCF time: 0 days 0 hours 0 min 9 sec 

Total time                  ....       9.880 sec
Sum of individual times     ....       9.366 sec  ( 94.8%)

SCF preparation             ....       0.742 sec  (  7.5%)
Fock matrix formation       ....       7.015 sec  ( 71.0%)
  Startup                   ....       0.009 sec  (  0.1% of F)
  Split-RI-J                ....       1.943 sec  ( 27.7% of F)
  XC integration            ....       4.900 sec  ( 69.8% of F)
    XC Preparation          ....       0.000 sec  (  0.0% of XC)
    Basis function eval.    ....       0.688 sec  ( 14.0% of XC)
    Density eval.           ....       0.534 sec  ( 10.9% of XC)
    XC-Functional eval.     ....       0.081 sec  (  1.7% of XC)
    XC-Potential eval.      ....       0.719 sec  ( 14.7% of XC)
Diagonalization             ....       0.000 sec  (  0.0%)
Density matrix formation    ....       0.376 sec  (  3.8%)
Total Energy calculation    ....       0.056 sec  (  0.6%)
Population analysis         ....       0.194 sec  (  2.0%)
Orbital Transformation      ....       0.095 sec  (  1.0%)
Orbital Orthonormalization  ....       0.000 sec  (  0.0%)
DIIS solution               ....       0.018 sec  (  0.2%)
SOSCF solution              ....       0.871 sec  (  8.8%)
Finished LeanSCF after  10.1 sec

Maximum memory used throughout the entire LEANSCF-calculation: 12.9 MB


-------------------------------------------------------------------------------
                          DFT DISPERSION CORRECTION                            
                                                                               
                              DFTD3 V3.1  Rev 1                                
                          USING Becke-Johnson damping                          
-------------------------------------------------------------------------------
The BP86 functional is recognized
Active option DFTDOPT                   ...         4   

molecular C6(AA) [au] = 4036.536197 


            DFT-D V3
 parameters
 s6 scaling factor         :     1.0000 
 a1 scaling factor         :     0.3946 
 s8 scaling factor         :     3.2822 
 a2 scaling factor         :     4.8516 
 ad hoc parameters k1-k3   :    16.0000     1.3333    -4.0000 

 Edisp/kcal,au: -23.919736244719  -0.038118522001 
 E6   /kcal   :  -6.811345146 
 E8   /kcal   : -17.108391098 
 % E8         :  71.524162823 

-------------------------   ----------------
Dispersion correction           -0.038118522
-------------------------   ----------------


-------------------------   --------------------
FINAL SINGLE POINT ENERGY      -297.634333670892
-------------------------   --------------------

                                *** OPTIMIZATION RUN DONE ***



           ************************************************************
           *        Program running with 8 parallel MPI-processes     *
           *              working on a common directory               *
           ************************************************************

------------------------------------------------------------------------------
                              ORCA PROPERTY CALCULATIONS
------------------------------------------------------------------------------

GBWName                                 ... icosahedron_nn5.00.gbw
Number of atoms                         ...     12
Number of basis functions               ...    168
Max core memory                         ...   2500 MB

Electric properties:
Dipole moment                           ... YES
Quadrupole moment                       ...  NO
Static polarizability (Dipole/Dipole)   ...  NO
Static polarizability (Dipole/Quad.)    ...  NO
Static polarizability (Quad./Quad.)     ...  NO
Static polarizability (Velocity)        ...  NO
Static hyperpolarizability              ...  NO

Atomic electric properties:
Dipole moment                           ...  NO
Quadrupole moment                       ...  NO
Static polarizability                   ...  NO

Choice of electric origin               ... Center of mass
Position of electric origin             ...    -0.000000    -0.000000    -0.000000

General magnetic properties:
Magnetizability                         ...  NO

EPR properties:
g-Tensor (aka g-matrix)                 ...  NO
Zero-Field splitting spin-orbit         ...  NO
Zero-field splitting spin-spin          ...  NO
Hyperfine couplings                     ...  NO (   0 nuclei)
Quadrupole couplings                    ...  NO (   0 nuclei)
Contact density                         ...  NO (   0 nuclei)

NMR properties:
Chemical shifts                         ...  NO (   0 nuclei)
Spin-rotation constants                 ...  NO (   0 nuclei)
Spin-spin couplings                     ...  NO (   0 nuclei,    0 pairs)

Choice of magnetic origin               ... GIAO
Position of magnetic origin             ...     0.000000     0.000000     0.000000

Properties with geometric perturbations:
SCF Hessian                             ...  NO
IR spectrum                             ...  NO
VCD spectrum                            ...  NO
X-ray spectroscopy properties:
SCF XES/XAS/RIXS spectra                ...  NO

SCF SOC stabilization energy            ...  NO
Diagonal Born-Oppenheimer correction    ...  NO

-------------
DIPOLE MOMENT
-------------

Method             : SCF
Type of density    : Electron Density
Multiplicity       :   1
Irrep              :   0
Energy             :  -297.5962151488902236 Eh
Basis              : AO
                                X                 Y                 Z
Electronic contribution:      0.003073569       0.005302777      -0.000180908
Nuclear contribution   :     -0.000000000      -0.000000000      -0.000000000
                        -----------------------------------------
Total Dipole Moment    :      0.003073569       0.005302777      -0.000180908
                        -----------------------------------------
Magnitude (a.u.)       :      0.006131802
Magnitude (Debye)      :      0.015585802



--------------------
Rotational spectrum 
--------------------
 
Rotational constants in cm-1:             0.076281             0.071910             0.071513 
Rotational constants in MHz :          2286.832844          2155.810860          2143.917330 

Dipole components along the rotational axes: 
x,y,z [a.u.] :     0.006128     0.000212     0.000088 
x,y,z [Debye]:     0.015575     0.000538     0.000225 

 

Dipole moment calculation done in   0.1 sec 

Maximum memory used throughout the entire PROP-calculation: 10.4 MB

--------------------------------
SUGGESTED CITATIONS FOR THIS RUN
--------------------------------

Below you find a list of papers that are relevant to this ORCA run
We neither can nor want to force you to cite these papers, but we appreciate if you do
You receive ORCA, which is the product of decades of hard work by many enthusiastic individuals, for free
The only thing we kindly ask in return is that you cite our papers,
We deeply appreciate it, if you show your appreciation for ORCA by not just citing the generic ORCA reference.

Please note that relegating all ORCA citations to the supporting information does *not* help us.
SI sections are not indexed - citations you put there will not count into any citation statistics
But we need these citations in order to attract the funding resources that allow us to do what we are doing

Therefore, if you are a happy ORCA user, please consider citing a few of the papers listed below in the main body of your paper

In addition to the list printed below, the program has created the file icosahedron_nn5.00.bibtex that contains the list in bibtex format
You can import this file easily into all common literature databanks and citation aid programs

It goes without saying that in many instances, there are alternative algorithms to achieve similar
results as the ones you have gotten from ORCA. It is, of course, also the case that in some instances
ORCA just re-implements algorithms worked out by others. We are fully aware of that and we are also
fully appreciative of our colleagues work. Hence this citation list should not be read as indicating
that the listed papers, which are focused on our own work, are the only ones worth citing. It simply
meant to make it easier for users to cite ORCA specific papers. It is not a substitute for doing your
own literature research and citing the relevant literature in a scientifically appropriate manner.

List of essential papers. We consider these as the minimum necessary citations

  1. Neese, F.
     Software update: the ORCA program system, version 6.0
     WIRES Comput. Molec. Sci. 2025 15(1), e70019
     doi.org/10.1002/wcms.70019

List of papers to cite with high priority. The work reported in these papers was absolutely
necessary for this run to complete.
Our perspective: the developers of density functionals and basis sets usually get cited in chemistry papers
Good! But without the algorithms to do something with them, the functionals or basis sets would not do anything.
Hence, in our opinion, the algorithm design and method developments papers are equally worthy of getting cited

  1. Neese, F.
     An improvement of the resolution of the identity approximation for the formation of the Coulomb matrix
     J. Comp. Chem. 2003 24(14), 1740-1747
     doi.org/10.1002/jcc.10318
  2. Grimme, S.; Antony, J.; Ehrlich, S.; Krieg, H.
     A consistent and accurate ab initio parametrization of density functional dispersion correction (DFT-D) for the 94 elements H-Pu
     J. Chem. Phys. 2010 132 , 154104
     doi.org/10.1063/1.3382344
  3. Grimme, S.; Ehrlich, S.; Goerigk, L.
     Effect of the damping function in dispersion corrected density functional theory
     J. Comput. Chem. 2011 32(7), 1456-1465
     doi.org/10.1002/jcc.21759
  4. Helmich-Paris, B.
     A trust-region augmented Hessian implementation for restricted and unrestricted Hartree–Fock and Kohn–Sham methods
     J. Chem. Phys. 2021 154 , 164104
     doi.org/10.1063/5.0040798
  5. Neese, F.
     The SHARK Integral Generation and Digestion System
     J. Comp. Chem. 2022 44(3), 381
     doi.org/10.1002/jcc.26942

List of suggested additional citations. These are papers that are important in the 'surrounding' of 
of this run, or papers that preceded the highly important papers. If you like your results we are grateful for a citation.

  1. Neese, F.
     The ORCA program system
     WIRES Comput. Molec. Sci. 2012 2(1), 73-78
     doi.org/10.1002/wcms.81
  2. Neese, F.
     Software update: the ORCA program system, version 4.0
     WIRES Comput. Molec. Sci. 2018 8(1), 1-6
     doi.org/10.1002/wcms.1327
  3. Neese, F.; Wennmohs, F.; Becker, U.; Riplinger, C.
     The ORCA quantum chemistry program package
     J. Chem. Phys. 2020 152(22), 224108
     doi.org/10.1063/5.0004608
  4. Neese, F.
     Software update: The ORCA program system—Version 5.0
     WIRES Comput. Molec. Sci. 2022 12(1), e1606
     doi.org/10.1002/wcms.1606

List of optional additional citations

  1. Neese, F.
     Approximate second-order SCF convergence for spin unrestricted wavefunctions
     Chem. Phys. Lett. 2000 325(1-3), 93-98
     doi.org/10.1016/s0009-2614(00)00662-x

Timings for individual modules:

Sum of individual times          ...      955.824 sec (=  15.930 min)
Startup calculation              ...      109.206 sec (=   1.820 min)  11.4 %
SCF iterations                   ...      711.052 sec (=  11.851 min)  74.4 %
Property calculations            ...        1.030 sec (=   0.017 min)   0.1 %
SCF Gradient evaluation          ...      130.977 sec (=   2.183 min)  13.7 %
Geometry relaxation              ...        3.559 sec (=   0.059 min)   0.4 %
                             ****ORCA TERMINATED NORMALLY****
TOTAL RUN TIME: 0 days 0 hours 16 minutes 47 seconds 273 msec
