
                                 *****************
                                 * O   R   C   A *
                                 *****************

                                            #,                                       
                                            ###                                      
                                            ####                                     
                                            #####                                    
                                            ######                                   
                                           ########,                                 
                                     ,,################,,,,,                         
                               ,,#################################,,                 
                          ,,##########################################,,             
                       ,#########################################, ''#####,          
                    ,#############################################,,   '####,        
                  ,##################################################,,,,####,       
                ,###########''''           ''''###############################       
              ,#####''   ,,,,##########,,,,          '''####'''          '####       
            ,##' ,,,,###########################,,,                        '##       
           ' ,,###''''                  '''############,,,                           
         ,,##''                                '''############,,,,        ,,,,,,###''
      ,#''                                            '''#######################'''  
     '                                                          ''''####''''         
             ,#######,   #######,   ,#######,      ##                                
            ,#'     '#,  ##    ##  ,#'     '#,    #''#        ,####,    ,#,          
            ##       ##  ##   ,#'  ##            #'  '#       #'       ,# #          
            ##       ##  #######   ##           ,######,      #####,      #          
            '#,     ,#'  ##    ##  '#,     ,#' ,#      #,     #,   #      #          
             '#######'   ##     ##  '#######'  #'      '#     '####' #    #          



                #########################################################
                #                        -***-                          #
                #          Department of theory and spectroscopy        #
                #                                                       #
                #                      Frank Neese                      #
                #                                                       #
                #     Directorship, Architecture, Infrastructure        #
                #                    SHARK, DRIVERS                     #
                #        Core code/Algorithms in most modules           #
                #                                                       #
                #        Max Planck Institute fuer Kohlenforschung      #
                #                Kaiser Wilhelm Platz 1                 #
                #                 D-45470 Muelheim/Ruhr                 #
                #                      Germany                          #
                #                                                       #
                #                  All rights reserved                  #
                #                        -***-                          #
                #########################################################


                         Program Version 6.1.1  -  RELEASE   -
                                (GIT: $487d211c$)
                          ($2025-11-21 10:33:24 +0100$)
                                                                         
                                  - NO-DMRG VERSION -                    
                                                                         


 With contributions from (in alphabetic order):
[Max-Planck-Institut fuer Kohlenforschung]                               
  Daniel Aravena         : Magnetic Suceptibility                        
  Michael Atanasov       : Ab Initio Ligand Field Theory (pilot matlab implementation)
  Alexander A. Auer      : GIAO ZORA, VPT2 properties, NMR spectrum      
  Ute Becker             : All parallelization in ORCA, NUMFREQ, NUMCALC 
  Giovanni Bistoni       : ED, misc. LED, open-shell LED, HFLD           
  Dmytro Bykov           : pre 5.0 version of the SCF Hessian            
  Marcos Casanova-Páez   : Triplet and SCS-CIS(D). UHF-(DLPNO)-IP/EA/STEOM-CCSD. UHF-CVS-IP/STEOM-CCSD   
  Vijay G. Chilkuri      : MRCI spin determinant printing, contributions to CSF-ICE 
  Pauline Colinet        : FMM embedding                                 
  Dipayan Datta          : RHF DLPNO-CCSD density                        
  Achintya Kumar Dutta   : EOM-CC, STEOM-CC                              
  Nicolas Foglia         : Exact transition moments, OPA infrastructure, MCD improvements    
  Dmitry Ganyushin       : Spin-Orbit,Spin-Spin,Magnetic field MRCI      
  Miquel Garcia-Rates    : C-PCM and meta-GGA Hessian, CCSD/C-PCM, Gaussian charge scheme 
  Tiago L. C. Gouveia    : GS-ROHF, GS-ROCIS                             
  Yang Guo               : DLPNO-NEVPT2, F12-NEVPT2, CIM, IAO-localization        
  Andreas Hansen         : Spin unrestricted coupled pair/coupled cluster methods 
  Ingolf Harden          : AUTO-CI MPn and infrastructure                
  Benjamin Helmich-Paris : MC-RPA, TRAH-(SCF,CASSCF), AVAS, COSX integrals, SCF dyn. polar., MC-PDFT, srDFT 
  Lee Huntington         : MR-EOM, pCC                                   
  Robert Izsak           : Overlap fitted RIJCOSX, COSX-SCS-MP3, EOM     
  Riya Kayal             : Wick's Theorem for AUTO-CI, AUTO-CI UHF-CCSDT 
  Emily Kempfer          : AUTO-CI RHF CISDT and CCSDT, approximate NEVPT4
  Christian Kollmar      : KDIIS, OOCD, Brueckner-CCSD(T), CCSD density, CASPT2, CASPT2-K, improved NEVPT2 
  Axel Koslowski         : Symmetry handling                             
  Simone Kossmann        : meta-GGA functionals, TD-DFT gradient, OOMP2, (MP2 Hessian; deprecated post 5.0) 
  Lucas Lang             : DCDCAS, Hyperfine gauge corrections, ICE-SOC+SSC
  Marvin Lechner         : AUTO-CI (C++ implementation), FIC-MRCC        
  Spencer Leger          : CASSCF response                               
  Dagmar Lenk            : GEPOL surface, SMD, ORCA-2-JSON               
  Dimitrios Liakos       : Extrapolation schemes; Compound Job, Property file
  Dimitrios Manganas     : Further ROCIS development; embedding schemes. LFT, Crystal Embedding 
  Dimitrios Pantazis     : SARC Basis sets                               
  Anastasios Papadopoulos: AUTO-CI, single reference methods and gradients 
  Taras Petrenko         : pre 6.0 DFT Hessian and TD-DFT gradient,  ECA, NRVS 
  Petra Pikulova         : Analytic Raman intensities                    
  Peter Pinski           : DLPNO-MP2, DLPNO-MP2 Gradient                 
  Shashank Vittal Rao    : ES-AILFT, MagRelax                            
  Christoph Reimann      : Effective Core Potentials                     
  Marius Retegan         : Local ZFS, SOC                                
  Christoph Riplinger    : Optimizer, TS searches, QM/MM, DLPNO-CCSD(T), (RO)-DLPNO pert. Triples 
  Michael Roemelt        : Original ROCIS implementation, recursive CI coupling coefficients
  Masaaki Saitow         : Open-shell DLPNO-CCSD energy and density      
  Barbara Sandhoefer     : DKH picture change effects                    
  Yorick L. A. Schmerwitz: GMF and freeze-and-release deltaSCF, NEB S-IDPP initial path                    
  Kantharuban Sivalingam : CASSCF convergence/infrastructure, NEVPT2, NEVPT3, NEVPT4(SD), FIC-MRCI and CEPA variants
  Bernardo de Souza      : ESD, SOC TD-DFT                               
  Georgi L. Stoychev     : AutoAux, RI-MP2 NMR, DLPNO-MP2 response, X2C  
  Van Anh Tran           : RI-MP2 g-tensors                              
  Willem Van den Heuvel  : Paramagnetic NMR                              
  Zikuan Wang            : NOTCH, Electric field optimization            
  Frank Wennmohs         : Technical directorship and infrastructure     
  Hang Xu                : AUTO-CI-Response properties                   
                                                                         
[FACCTs GmbH]                                                            
  Markus Bursch, Nicolas Foglia, Miquel Garcia-Rates, Ingolf Harden, Hagen Neugebauer, Anastasios Papadopoulos, 
  Christoph Riplinger, Bernardo de Souza, Georgi L. Stoychev                                                    
                                                                 
  APM, various basis sets, CI-OPT, improved COSX, DLPNO-Multilevel,           
  DOCKER, DRACO, updates on ESD, Fragmentator, GOAT, IRC, LR-CPCM, L-BFGS, MBIS, meta-GGA TD-DFT gradient, ML-optimized integration grids, 
  MM, NACMEs, nearIR, NEB, NEB-TS, NL-DFT gradient (VV10), 2- and 3-layer-ONIOM, interface openCOSMO-RS, QMMM,   
  Crystal-QMMM, RESP, rigid body optimization, SF, symmetry and pop. for TD-DFT, various functionals, SOLVATOR                                   
                                                                         
[Other institutions]                                                     
  V. Asgeirsson          : NEB                                           
  Christoph Bannwarth    : sTDA-DFT, sTD-DFT, PBEh-3c, B97-3c, D3        
  Giovanni Bistoni       : ETS/NOCV, ADLD/ADEX, COVALED                  
  Martin Brehm           : Molecular dynamics                            
  Ronald Cardenas        : ETS/NOCV                                      
  Martina Colucci        : COVALED                                       
  Sebastian Ehlert       : rSCAN, r2SCAN, r2SCAN-3c, D4, dhf basis sets  
  Marvin Friede          : D4 for Fr, Ra, Ac-Lr                          
  Lars Goerigk           : TD-DFT with DH, B97 family of functionals     
  Stefan Grimme          : VdW corrections, initial TS optimization, DFT functionals, gCP, sTDA/sTD-DF 
  Waldemar Hujo          : DFT-NL                                        
  H. Jonsson             : NEB                                           
  Holger Kruse           : gCP                                           
  Marcel Mueller         : wB97X-3c, vDZP basis set                      
  Hagen Neugebauer       : wr2SCAN, Native XTB                           
  Gianluca Regni         : ADLD/ADEX                                     
  Tobias Risthaus        : pre 6.0 range-separated hybrid DFT and stability analysis
  Lukas Wittmann         : regularized MP2, r2SCAN double-hybrids, wr2SCAN        
                                                                         
We gratefully acknowledge several colleagues who have allowed us to      
interface, adapt or use parts of their codes:                            
  Ed Valeev, F. Pavosevic, A. Kumar             : LibInt (2-el integral package), F12 methods 
  Garnet Chan, S. Sharma, J. Yang, R. Olivares  : DMRG                   
  Ulf Ekstrom                                   : XCFun DFT Library      
  Mihaly Kallay                                 : mrcc  (arbitrary order and MRCC methods)
  Frank Weinhold                                : gennbo (NPA and NBO analysis)           
  Simon Mueller                                 : openCOSMO-RS                            
  Christopher J. Cramer and Donald G. Truhlar   : smd solvation model                     
  S Lehtola, MJT Oliveira, MAL Marques          : LibXC Library                           
  Liviu Ungur et al                             : ANISO software                          


 Your calculation uses the libint2 library for the computation of 2-el integrals
 For citations please refer to: http://libint.valeyev.net

 Your ORCA version has been built with support for libXC version: 7.0.0
 For citations please refer to: https://libxc.gitlab.io

 This ORCA versions uses:
   CBLAS   interface :  Fast vector & matrix operations
   LAPACKE interface :  Fast linear algebra routines
   SCALAPACK package :  Parallel linear algebra routines
   Shared memory     :  Shared parallel matrices
   BLAS/LAPACK       :  OpenBLAS 0.3.29  USE64BITINT DYNAMIC_ARCH NO_AFFINITY Zen SINGLE_THREADED
        Core in use  :  Zen
   Copyright (c) 2011-2014, The OpenBLAS Project


  ***********************************
  * Starting time: Fri Apr 24 09:45:47 2026
  * Host name:     vmi3233575
  * Process ID:    1811252
  * Working dir.:  /root/b12_scan/jobs_refined/rank03_quasi_planar_nn2.00
  ***********************************

NOTE: MaxCore=2500 MB was set to SCF,MP2,MDCI,CIPSI,MRCI,RASCI and CIS
      => If you want to overwrite this, your respective input block should be placed after the MaxCore statement
Your calculation utilizes the atom-pairwise dispersion correction
with the Becke-Johnson damping scheme (D3BJ)


================================================================================

----- Orbital basis set information -----
Your calculation utilizes the basis: def2-TZVP
   F. Weigend and R. Ahlrichs, Phys. Chem. Chem. Phys. 7, 3297 (2005).

----- AuxJ basis set information -----
Your calculation utilizes the auxiliary basis: def2/J
   H-Rn: F. Weigend, Phys. Chem. Chem. Phys. 8, 1057 (2006).
   Fr-Lr: K. Eichkorn, F. Weigend, O. Treutler, R. Ahlrichs; Theor. Chem. Acc. 97, 119 (1997).

================================================================================
                                        WARNINGS
                       Please study these warnings very carefully!
================================================================================


WARNING: Geometry Optimization
  ===> : Switching off AutoStart
         For restart on a previous wavefunction, please use MOREAD

================================================================================
                                       INPUT FILE
================================================================================
NAME = rank03_quasi_planar_nn2.00.inp
|  1> ! B3LYP def2-TZVP def2/J RIJCOSX Opt TightSCF D3BJ Freq
|  2> 
|  3> %pal nprocs 8 end
|  4> %maxcore 2500
|  5> 
|  6> %geom
|  7>   MaxIter 500
|  8> end
|  9> 
| 10> * xyz 0 1
| 11>   B           0.95341771839618     -0.22932182855942     -0.38029481145746
| 12>   B          -0.27816331788125      0.94037512876229     -0.37851411842369
| 13>   B          -0.67532883110201     -0.71094858850425     -0.37954902732218
| 14>   B           2.45189563990221      0.22486244123246      0.16902894304807
| 15>   B           1.40839732037433      1.48312029447498      0.04036580183579
| 16>   B           0.09810850554942      2.46065419421687      0.16964339033827
| 17>   B          -1.42082364806770      2.01117475897943      0.17022398664121
| 18>   B          -1.98870156192235      0.47823664010440      0.04160053137455
| 19>   B          -2.17958105293080     -1.14531630691756      0.16998455313004
| 20>   B          -1.03111076982374     -2.23601423228307      0.16903081820607
| 21>   B           0.58024239087149     -1.96165668977423      0.03981399685096
| 22>   B           2.08164760663422     -1.31516581173190      0.16866590577836
| 23> *
| 24> 
| 25>                          ****END OF INPUT****
================================================================================

                       *****************************
                       * Geometry Optimization Run *
                       *****************************

Geometry optimization settings:
Update method            Update   .... BFGS
Choice of coordinates    CoordSys .... (2022) Redundant Internals
Initial Hessian          InHess   .... Almloef's Model
Max. no of cycles        MaxIter  .... 500

Convergence Tolerances:
Energy Change            TolE     ....  5.0000e-06 Eh
Max. Gradient            TolMAXG  ....  3.0000e-04 Eh/bohr
RMS Gradient             TolRMSG  ....  1.0000e-04 Eh/bohr
Max. Displacement        TolMAXD  ....  4.0000e-03 bohr
RMS Displacement         TolRMSD  ....  2.0000e-03 bohr
Strict Convergence                .... False

------------------------------------------------------------------------------
                        ORCA OPTIMIZATION COORDINATE SETUP
------------------------------------------------------------------------------

The optimization will be done in redundant internal coordinates (2022)
Making redundant internal coordinates   ...  (2022 redundants) done
Evaluating the initial hessian          ...  (Almloef) done
Evaluating the coordinates              ...  done
Calculating the B-matrix                .... done
Calculating the G-matrix                .... done
The number of degrees of freedom        ....  264

    -----------------------------------------------------------------
                    Redundant Internal Coordinates


    -----------------------------------------------------------------
         Definition                    Initial Value    Approx d2E/dq
    -----------------------------------------------------------------
      1. B(B   1,B   0)                  1.6985         0.269862   
      2. B(B   2,B   1)                  1.6984         0.269972   
      3. B(B   2,B   0)                  1.6985         0.269922   
      4. B(B   3,B   0)                  1.6594         0.311621   
      5. B(B   4,B   1)                  1.8206         0.172348   
      6. B(B   4,B   0)                  1.8211         0.172018   
      7. B(B   4,B   3)                  1.6397         0.334945   
      8. B(B   5,B   4)                  1.6399         0.334763   
      9. B(B   5,B   1)                  1.6593         0.311680   
     10. B(B   6,B   5)                  1.5840         0.410954   
     11. B(B   6,B   1)                  1.6593         0.311648   
     12. B(B   7,B   6)                  1.6398         0.334843   
     13. B(B   7,B   2)                  1.8211         0.172008   
     14. B(B   7,B   1)                  1.8210         0.172089   
     15. B(B   8,B   2)                  1.6593         0.311634   
     16. B(B   8,B   7)                  1.6398         0.334875   
     17. B(B   9,B   8)                  1.5839         0.411230   
     18. B(B   9,B   2)                  1.6593         0.311666   
     19. B(B  10,B   9)                  1.6396         0.335031   
     20. B(B  10,B   2)                  1.8212         0.171988   
     21. B(B  10,B   0)                  1.8212         0.171964   
     22. B(B  11,B  10)                  1.6397         0.334902   
     23. B(B  11,B   3)                  1.5839         0.411152   
     24. B(B  11,B   0)                  1.6593         0.311675   
     25. A(B   3,B   0,B   4)           55.9814         0.319530   
     26. A(B   2,B   0,B  11)          117.7956         0.344288   
     27. A(B   3,B   0,B  10)          111.6559         0.319513   
     28. A(B   1,B   0,B  11)          160.6168         0.344275   
     29. A(B   4,B   0,B  11)          111.6572         0.319539   
     30. A(B   3,B   0,B  11)           57.0148         0.352725   
     31. A(B   4,B   0,B  10)          153.1715         0.290506   
     32. A(B   1,B   0,B   2)           59.9969         0.336099   
     33. A(B  10,B   0,B  11)           55.9816         0.319522   
     34. A(B   1,B   0,B   4)           62.1828         0.312144   
     35. A(B   2,B   0,B   3)          160.6388         0.344278   
     36. A(B   1,B   0,B   3)          117.7717         0.344265   
     37. A(B   2,B   0,B   4)          120.4062         0.312155   
     38. A(B   2,B   0,B  10)           62.2038         0.312139   
     39. A(B   1,B   0,B  10)          120.4135         0.312128   
     40. A(B   0,B   1,B   7)          120.4363         0.312165   
     41. A(B   6,B   1,B   7)           55.9872         0.319556   
     42. A(B   2,B   1,B   6)          117.8135         0.344293   
     43. A(B   5,B   1,B   6)           57.0205         0.352731   
     44. A(B   5,B   1,B   7)          111.6734         0.319561   
     45. A(B   0,B   1,B   6)          160.7453         0.344270   
     46. A(B   2,B   1,B   7)           62.2077         0.312185   
     47. A(B   2,B   1,B   4)          120.4390         0.312261   
     48. A(B   0,B   1,B   5)          117.8317         0.344276   
     49. A(B   4,B   1,B   7)          153.2236         0.290627   
     50. A(B   4,B   1,B   5)           55.9984         0.319640   
     51. A(B   0,B   1,B   2)           59.9998         0.336109   
     52. A(B   0,B   1,B   4)           62.2140         0.312240   
     53. A(B   4,B   1,B   6)          111.6826         0.319634   
     54. A(B   2,B   1,B   5)          160.7411         0.344299   
     55. A(B   8,B   2,B  10)          111.6516         0.319523   
     56. A(B   7,B   2,B  10)          153.1789         0.290510   
     57. A(B   1,B   2,B  10)          120.4220         0.312155   
     58. A(B   0,B   2,B  10)           62.2061         0.312146   
     59. A(B   8,B   2,B   9)           57.0128         0.352726   
     60. A(B   0,B   2,B   1)           60.0033         0.336121   
     61. A(B   7,B   2,B   9)          111.6585         0.319534   
     62. A(B   1,B   2,B   9)          160.6558         0.344297   
     63. A(B   0,B   2,B   9)          117.7996         0.344286   
     64. A(B   7,B   2,B   8)           55.9834         0.319529   
     65. A(B   1,B   2,B   8)          117.7943         0.344291   
     66. A(B   0,B   2,B   8)          160.6817         0.344280   
     67. A(B   9,B   2,B  10)           55.9784         0.319528   
     68. A(B   1,B   2,B   7)           62.2000         0.312161   
     69. A(B   0,B   2,B   7)          120.4323         0.312152   
     70. A(B   0,B   3,B   4)           67.0063         0.357058   
     71. A(B   0,B   3,B  11)           61.4911         0.369789   
     72. A(B   4,B   3,B  11)          126.6787         0.374414   
     73. A(B   1,B   4,B   3)          112.2614         0.323429   
     74. A(B   0,B   4,B   3)           57.0123         0.323327   
     75. A(B   0,B   4,B   1)           55.6032         0.290608   
     76. A(B   3,B   4,B   5)          163.6864         0.361440   
     77. A(B   1,B   4,B   5)           57.0193         0.323400   
     78. A(B   0,B   4,B   5)          112.2794         0.323298   
     79. A(B   4,B   5,B   6)          126.6598         0.374347   
     80. A(B   1,B   5,B   6)           61.4907         0.369770   
     81. A(B   1,B   5,B   4)           66.9824         0.357037   
     82. A(B   1,B   6,B   5)           61.4889         0.369763   
     83. A(B   5,B   6,B   7)          126.6776         0.374363   
     84. A(B   1,B   6,B   7)           67.0002         0.357045   
     85. A(B   6,B   7,B   8)          163.6911         0.361442   
     86. A(B   2,B   7,B   8)           57.0107         0.323313   
     87. A(B   1,B   7,B   8)          112.2521         0.323338   
     88. A(B   2,B   7,B   6)          112.2611         0.323308   
     89. A(B   1,B   7,B   6)           57.0126         0.323333   
     90. A(B   1,B   7,B   2)           55.5923         0.290537   
     91. A(B   7,B   8,B   9)          126.6817         0.374412   
     92. A(B   2,B   8,B   9)           61.4927         0.369803   
     93. A(B   2,B   8,B   7)           67.0059         0.357048   
     94. A(B   2,B   9,B   8)           61.4945         0.369810   
     95. A(B   8,B   9,B  10)          126.6852         0.374442   
     96. A(B   2,B   9,B  10)           67.0108         0.357082   
     97. A(B   9,B  10,B  11)          163.6607         0.361481   
     98. A(B   2,B  10,B  11)          112.2470         0.323311   
     99. A(B   0,B  10,B  11)           57.0082         0.323303   
    100. A(B   2,B  10,B   9)           57.0109         0.323331   
    101. A(B   0,B  10,B   9)          112.2541         0.323324   
    102. A(B   0,B  10,B   2)           55.5902         0.290498   
    103. A(B   3,B  11,B  10)          126.6833         0.374405   
    104. A(B   0,B  11,B  10)           67.0102         0.357061   
    105. A(B   0,B  11,B   3)           61.4941         0.369800   
    106. D(B   4,B   1,B   0,B  11)     75.9724         0.010000   
    107. D(B   4,B   1,B   0,B  10)    149.3418         0.010000   
    108. D(B   4,B   1,B   0,B   3)      6.8986         0.010000   
    109. D(B   2,B   1,B   0,B  10)    -15.5569         0.010000   
    110. D(B   2,B   1,B   0,B   3)   -158.0002         0.010000   
    111. D(B   5,B   1,B   0,B   2)    158.1041         0.010000   
    112. D(B   4,B   1,B   0,B   2)    164.8988         0.010000   
    113. D(B   2,B   1,B   0,B   4)   -164.8988         0.010000   
    114. D(B   5,B   1,B   0,B   3)      0.1039         0.010000   
    115. D(B   2,B   1,B   0,B  11)    -88.9264         0.010000   
    116. D(B   7,B   2,B   0,B   1)    -15.4876         0.010000   
    117. D(B   0,B   2,B   1,B   7)   -164.9132         0.010000   
    118. D(B   7,B   2,B   1,B   6)      6.8000         0.010000   
    119. D(B   8,B   2,B   1,B   0)    158.0442         0.010000   
    120. D(B   0,B   2,B   1,B   6)   -158.1132         0.010000   
    121. D(B   8,B   2,B   1,B   4)    142.5387         0.010000   
    122. D(B   0,B   2,B   1,B   5)    -88.9677         0.010000   
    123. D(B   7,B   2,B   1,B   0)    164.9132         0.010000   
    124. D(B   0,B   2,B   1,B   4)    -15.5056         0.010000   
    125. D(B   1,B   2,B   0,B   4)     15.4956         0.010000   
    126. D(B   1,B   2,B   0,B  11)    157.9691         0.010000   
    127. D(B   1,B   2,B   0,B  10)    164.8433         0.010000   
    128. D(B   1,B   2,B   0,B   3)     88.8386         0.010000   
    129. D(B   7,B   2,B   0,B  10)    149.3556         0.010000   
    130. D(B   7,B   2,B   0,B  11)    142.4814         0.010000   
    131. D(B   7,B   2,B   1,B   5)     75.9454         0.010000   
    132. D(B   7,B   2,B   0,B   3)     73.3510         0.010000   
    133. D(B   7,B   2,B   0,B   4)      0.0080         0.010000   
    134. D(B   8,B   2,B   0,B   1)    -88.8996         0.010000   
    135. D(B   7,B   2,B   1,B   4)    149.4076         0.010000   
    136. D(B   4,B   3,B   0,B   1)     -7.3637         0.010000   
    137. D(B  11,B   3,B   0,B   4)    165.6750         0.010000   
    138. D(B  11,B   3,B   0,B   2)     80.2037         0.010000   
    139. D(B  11,B   3,B   0,B   1)    158.3113         0.010000   
    140. D(B   4,B   3,B   0,B  10)   -152.9204         0.010000   
    141. D(B   4,B   3,B   0,B  11)   -165.6750         0.010000   
    142. D(B   4,B   3,B   0,B   2)    -85.4713         0.010000   
    143. D(B   5,B   4,B   3,B  11)     36.7753         0.010000   
    144. D(B   5,B   4,B   3,B   0)     52.5049         0.010000   
    145. D(B   1,B   4,B   3,B  11)     -9.1651         0.010000   
    146. D(B   0,B   4,B   3,B  11)    -15.7296         0.010000   
    147. D(B   3,B   4,B   1,B   6)    153.1861         0.010000   
    148. D(B   3,B   4,B   1,B   5)    166.0762         0.010000   
    149. D(B   3,B   4,B   1,B   2)      8.4968         0.010000   
    150. D(B   3,B   4,B   0,B   2)    157.4685         0.010000   
    151. D(B   0,B   4,B   1,B   7)    103.1090         0.010000   
    152. D(B   0,B   4,B   1,B   6)    159.8596         0.010000   
    153. D(B   0,B   4,B   1,B   2)     15.1704         0.010000   
    154. D(B   3,B   4,B   0,B  11)     12.9031         0.010000   
    155. D(B   3,B   4,B   0,B  10)     69.6299         0.010000   
    156. D(B   0,B   4,B   1,B   5)    172.7497         0.010000   
    157. D(B   3,B   4,B   1,B   0)     -6.6736         0.010000   
    158. D(B   1,B   4,B   3,B   0)      6.5645         0.010000   
    159. D(B   3,B   4,B   0,B   1)    172.6332         0.010000   
    160. D(B   1,B   4,B   0,B  11)   -159.7301         0.010000   
    161. D(B   1,B   4,B   0,B  10)   -103.0033         0.010000   
    162. D(B   1,B   4,B   0,B   2)    -15.1647         0.010000   
    163. D(B   1,B   4,B   0,B   3)   -172.6332         0.010000   
    164. D(B   6,B   5,B   1,B   0)   -158.4397         0.010000   
    165. D(B   4,B   5,B   1,B   7)    152.9674         0.010000   
    166. D(B   4,B   5,B   1,B   2)     85.5323         0.010000   
    167. D(B   4,B   5,B   1,B   0)      7.2534         0.010000   
    168. D(B   4,B   5,B   1,B   6)    165.6931         0.010000   
    169. D(B   6,B   5,B   4,B   1)     15.7057         0.010000   
    170. D(B   6,B   5,B   4,B   0)      9.2440         0.010000   
    171. D(B   1,B   5,B   4,B   3)    -52.4492         0.010000   
    172. D(B   1,B   5,B   4,B   0)     -6.4616         0.010000   
    173. D(B   6,B   5,B   4,B   3)    -36.7436         0.010000   
    174. D(B   6,B   5,B   1,B   4)   -165.6931         0.010000   
    175. D(B   6,B   5,B   1,B   2)    -80.1608         0.010000   
    176. D(B   7,B   6,B   5,B   4)     -0.0043         0.010000   
    177. D(B   7,B   6,B   1,B   0)    -85.4872         0.010000   
    178. D(B   7,B   6,B   1,B   4)   -152.9659         0.010000   
    179. D(B   7,B   6,B   1,B   2)     -7.2596         0.010000   
    180. D(B   7,B   6,B   5,B   1)     16.4663         0.010000   
    181. D(B   5,B   6,B   1,B   7)    165.7021         0.010000   
    182. D(B   5,B   6,B   1,B   4)     12.7363         0.010000   
    183. D(B   5,B   6,B   1,B   2)    158.4425         0.010000   
    184. D(B   1,B   6,B   5,B   4)    -16.4707         0.010000   
    185. D(B   5,B   6,B   1,B   0)     80.2149         0.010000   
    186. D(B   8,B   7,B   6,B   5)     36.6557         0.010000   
    187. D(B   8,B   7,B   6,B   1)     52.3549         0.010000   
    188. D(B   2,B   7,B   6,B   5)     -9.2322         0.010000   
    189. D(B   2,B   7,B   6,B   1)      6.4670         0.010000   
    190. D(B   1,B   7,B   6,B   5)    -15.6991         0.010000   
    191. D(B   6,B   7,B   2,B   9)    153.1948         0.010000   
    192. D(B   6,B   7,B   2,B   1)     -6.5752         0.010000   
    193. D(B   6,B   7,B   2,B   0)      8.5802         0.010000   
    194. D(B   1,B   7,B   2,B  10)    103.0542         0.010000   
    195. D(B   1,B   7,B   2,B   9)    159.7700         0.010000   
    196. D(B   1,B   7,B   2,B   8)    172.6666         0.010000   
    197. D(B   1,B   7,B   2,B   0)     15.1554         0.010000   
    198. D(B   6,B   7,B   1,B   5)     12.8811         0.010000   
    199. D(B   6,B   7,B   2,B   8)    166.0913         0.010000   
    200. D(B   6,B   7,B   1,B   4)     69.6387         0.010000   
    201. D(B   6,B   7,B   1,B   2)    172.7418         0.010000   
    202. D(B   6,B   7,B   1,B   0)    157.5864         0.010000   
    203. D(B   2,B   7,B   1,B   6)   -172.7418         0.010000   
    204. D(B   2,B   7,B   1,B   5)   -159.8607         0.010000   
    205. D(B   2,B   7,B   1,B   4)   -103.1031         0.010000   
    206. D(B   2,B   7,B   1,B   0)    -15.1555         0.010000   
    207. D(B   9,B   8,B   7,B   6)    -36.6679         0.010000   
    208. D(B   9,B   8,B   7,B   2)     15.7226         0.010000   
    209. D(B   2,B   8,B   7,B   6)    -52.3905         0.010000   
    210. D(B   2,B   8,B   7,B   1)     -6.5335         0.010000   
    211. D(B   9,B   8,B   2,B   7)   -165.6821         0.010000   
    212. D(B   9,B   8,B   2,B   1)   -158.3491         0.010000   
    213. D(B   9,B   8,B   2,B   0)    -80.1613         0.010000   
    214. D(B   7,B   8,B   2,B  10)    152.9320         0.010000   
    215. D(B   9,B   8,B   7,B   1)      9.1891         0.010000   
    216. D(B   7,B   8,B   2,B   9)    165.6821         0.010000   
    217. D(B   7,B   8,B   2,B   1)      7.3330         0.010000   
    218. D(B   7,B   8,B   2,B   0)     85.5209         0.010000   
    219. D(B  10,B   9,B   8,B   2)     16.5056         0.010000   
    220. D(B   2,B   9,B   8,B   7)    -16.4911         0.010000   
    221. D(B  10,B   9,B   2,B   7)   -152.9293         0.010000   
    222. D(B  10,B   9,B   2,B   1)    -85.4970         0.010000   
    223. D(B  10,B   9,B   2,B   0)     -7.2926         0.010000   
    224. D(B   8,B   9,B   2,B  10)    165.6708         0.010000   
    225. D(B   8,B   9,B   2,B   7)     12.7415         0.010000   
    226. D(B   8,B   9,B   2,B   1)     80.1739         0.010000   
    227. D(B  10,B   9,B   8,B   7)      0.0145         0.010000   
    228. D(B   8,B   9,B   2,B   0)    158.3782         0.010000   
    229. D(B   2,B  10,B   0,B  11)    172.6609         0.010000   
    230. D(B   2,B  10,B   0,B   4)    103.0269         0.010000   
    231. D(B   2,B  10,B   0,B   3)    159.7504         0.010000   
    232. D(B   2,B  10,B   0,B   1)     15.2216         0.010000   
    233. D(B  11,B  10,B   9,B   8)     36.6898         0.010000   
    234. D(B   2,B  10,B   9,B   8)    -15.7361         0.010000   
    235. D(B   0,B  10,B   9,B   8)     -9.2393         0.010000   
    236. D(B   0,B  10,B   9,B   2)      6.4968         0.010000   
    237. D(B   9,B  10,B   2,B   7)     69.6191         0.010000   
    238. D(B   9,B  10,B   2,B   1)    157.4838         0.010000   
    239. D(B   9,B  10,B   2,B   0)    172.7078         0.010000   
    240. D(B   0,B  10,B   2,B   9)   -172.7078         0.010000   
    241. D(B   0,B  10,B   2,B   8)   -159.8017         0.010000   
    242. D(B   0,B  10,B   2,B   7)   -103.0887         0.010000   
    243. D(B   9,B  10,B   2,B   8)     12.9061         0.010000   
    244. D(B   0,B  10,B   2,B   1)    -15.2239         0.010000   
    245. D(B   9,B  10,B   0,B   4)     96.4213         0.010000   
    246. D(B   9,B  10,B   0,B   3)    153.1448         0.010000   
    247. D(B  11,B  10,B   9,B   2)     52.4259         0.010000   
    248. D(B   9,B  10,B   0,B   2)     -6.6056         0.010000   
    249. D(B   9,B  10,B   0,B   1)      8.6160         0.010000   
    250. D(B   3,B  11,B  10,B   2)      9.2020         0.010000   
    251. D(B   3,B  11,B  10,B   0)     15.7402         0.010000   
    252. D(B   0,B  11,B  10,B   9)    -52.4483         0.010000   
    253. D(B  10,B  11,B   3,B   4)     -0.0112         0.010000   
    254. D(B  10,B  11,B   3,B   0)    -16.5099         0.010000   
    255. D(B   0,B  11,B   3,B   4)     16.4988         0.010000   
    256. D(B  10,B  11,B   0,B   3)    165.6667         0.010000   
    257. D(B  10,B  11,B   0,B   2)      7.3391         0.010000   
    258. D(B  10,B  11,B   0,B   1)     85.5150         0.010000   
    259. D(B   0,B  11,B  10,B   2)     -6.5382         0.010000   
    260. D(B   3,B  11,B   0,B  10)   -165.6667         0.010000   
    261. D(B   3,B  11,B   0,B   4)    -12.7474         0.010000   
    262. D(B   3,B  11,B   0,B   2)   -158.3276         0.010000   
    263. D(B   3,B  11,B  10,B   9)    -36.7081         0.010000   
    264. D(B   3,B  11,B   0,B   1)    -80.1517         0.010000   
    -----------------------------------------------------------------

Number of atoms                         .... 12
Number of degrees of freedom            .... 264


         *************************************************************
         *                GEOMETRY OPTIMIZATION CYCLE   1            *
         *************************************************************
---------------------------------
CARTESIAN COORDINATES (ANGSTROEM)
---------------------------------
  B      0.953418   -0.229322   -0.380295
  B     -0.278163    0.940375   -0.378514
  B     -0.675329   -0.710949   -0.379549
  B      2.451896    0.224862    0.169029
  B      1.408397    1.483120    0.040366
  B      0.098109    2.460654    0.169643
  B     -1.420824    2.011175    0.170224
  B     -1.988702    0.478237    0.041601
  B     -2.179581   -1.145316    0.169985
  B     -1.031111   -2.236014    0.169031
  B      0.580242   -1.961657    0.039814
  B      2.081648   -1.315166    0.168666

----------------------------
CARTESIAN COORDINATES (A.U.)
----------------------------
  NO LB      ZA    FRAG     MASS         X           Y           Z
   0 B     5.0000    0    10.810    1.801698   -0.433355   -0.718653
   1 B     5.0000    0    10.810   -0.525652    1.777051   -0.715288
   2 B     5.0000    0    10.810   -1.276187   -1.343498   -0.717244
   3 B     5.0000    0    10.810    4.633411    0.424928    0.319418
   4 B     5.0000    0    10.810    2.661485    2.802691    0.076280
   5 B     5.0000    0    10.810    0.185398    4.649963    0.320580
   6 B     5.0000    0    10.810   -2.684968    3.800570    0.321677
   7 B     5.0000    0    10.810   -3.758101    0.903736    0.078614
   8 B     5.0000    0    10.810   -4.118811   -2.164334    0.321224
   9 B     5.0000    0    10.810   -1.948517   -4.225455    0.319422
  10 B     5.0000    0    10.810    1.096499   -3.706994    0.075238
  11 B     5.0000    0    10.810    3.933744   -2.485303    0.318732

--------------------------------
INTERNAL COORDINATES (ANGSTROEM)
--------------------------------
 B      0   0   0     0.000000000000     0.00000000     0.00000000
 B      1   0   0     1.698524651500     0.00000000     0.00000000
 B      2   1   0     1.698414417960    59.99978723     0.00000000
 B      1   2   3     1.659360123491   117.77166478   201.99981273
 B      4   1   2     1.639712100343    67.00626205   352.63628690
 B      5   4   1     1.639860359387   163.68643498    52.50492384
 B      6   5   4     1.584041346394   126.65980276   323.25641926
 B      7   6   5     1.639795290452   126.67755584     0.00000000
 B      8   7   6     1.639768766904   163.69112734    36.65572238
 B      9   8   7     1.583858221302   126.68170724   323.33210113
 B     10   9   8     1.639642661233   126.68524541     0.00000000
 B      4   1   2     1.583909958888    61.49109115   158.31132936

---------------------------
INTERNAL COORDINATES (A.U.)
---------------------------
 B      0   0   0     0.000000000000     0.00000000     0.00000000
 B      1   0   0     3.209746423049     0.00000000     0.00000000
 B      2   1   0     3.209538111848    59.99978723     0.00000000
 B      1   2   3     3.135736190947   117.77166478   201.99981273
 B      4   1   2     3.098606808125    67.00626205   352.63628690
 B      5   4   1     3.098886977115   163.68643498    52.50492384
 B      6   5   4     2.993404329492   126.65980276   323.25641926
 B      7   6   5     3.098764014648   126.67755584     0.00000000
 B      8   7   6     3.098713892406   163.69112734    36.65572238
 B      9   8   7     2.993058273221   126.68170724   323.33210113
 B     10   9   8     3.098475587224   126.68524541     0.00000000
 B      4   1   2     2.993156043088    61.49109115   158.31132936

---------------------
BASIS SET INFORMATION
---------------------
There are 1 groups of distinct atoms

 Group   1 Type B   : 11s6p2d1f contracted to 5s3p2d1f pattern {62111/411/11/1}

Atom   0B    basis set group =>   1
Atom   1B    basis set group =>   1
Atom   2B    basis set group =>   1
Atom   3B    basis set group =>   1
Atom   4B    basis set group =>   1
Atom   5B    basis set group =>   1
Atom   6B    basis set group =>   1
Atom   7B    basis set group =>   1
Atom   8B    basis set group =>   1
Atom   9B    basis set group =>   1
Atom  10B    basis set group =>   1
Atom  11B    basis set group =>   1
---------------------------------
AUXILIARY/J BASIS SET INFORMATION
---------------------------------
There are 1 groups of distinct atoms

 Group   1 Type B   : 12s5p4d2f1g contracted to 6s4p3d1f1g pattern {711111/2111/211/2/1}

Atom   0B    basis set group =>   1
Atom   1B    basis set group =>   1
Atom   2B    basis set group =>   1
Atom   3B    basis set group =>   1
Atom   4B    basis set group =>   1
Atom   5B    basis set group =>   1
Atom   6B    basis set group =>   1
Atom   7B    basis set group =>   1
Atom   8B    basis set group =>   1
Atom   9B    basis set group =>   1
Atom  10B    basis set group =>   1
Atom  11B    basis set group =>   1


           ************************************************************
           *        Program running with 8 parallel MPI-processes     *
           *              working on a common directory               *
           ************************************************************
------------------------------------------------------------------------------
                             ORCA STARTUP CALCULATIONS
                           -- RI-GTO INTEGRALS CHOSEN --
------------------------------------------------------------------------------
------------------------------------------------------------------------------
                   ___                                                        
                  /   \      - P O W E R E D   B Y -                         
                 /     \                                                     
                 |  |  |   _    _      __       _____    __    __             
                 |  |  |  | |  | |    /  \     |  _  \  |  |  /  |          
                  \  \/   | |  | |   /    \    | | | |  |  | /  /          
                 / \  \   | |__| |  /  /\  \   | |_| |  |  |/  /          
                |  |  |   |  __  | /  /__\  \  |    /   |      \           
                |  |  |   | |  | | |   __   |  |    \   |  |\   \          
                \     /   | |  | | |  |  |  |  | |\  \  |  | \   \       
                 \___/    |_|  |_| |__|  |__|  |_| \__\ |__|  \__/        
                                                                              
                      - O R C A' S   B I G   F R I E N D -                    
                                      &                                       
                       - I N T E G R A L  F E E D E R -                       
                                                                              
 v1 FN, 2020, v2 2021, v3 2022-2024                                           
------------------------------------------------------------------------------


----------------------
SHARK INTEGRAL PACKAGE
----------------------

Number of atoms                             ...     12
Number of basis functions                   ...    372
Number of shells                            ...    132
Maximum angular momentum                    ...      3
Integral batch strategy                     ... SHARK/LIBINT Hybrid
RI-J (if used) integral strategy            ... SPLIT-RIJ (Revised 2003 algorithm where possible)
Printlevel                                  ...      1
Contraction scheme used                     ... SEGMENTED contraction
Prescreening option                         ... SCHWARTZ
   Thresh                                   ... 2.500e-11
   Tcut                                     ... 2.500e-12
   Tpresel                                  ... 2.500e-12 
Coulomb Range Separation                    ... NOT USED
Exchange Range Separation                   ... NOT USED
Multipole approximations                    ... NOT USED
Finite Nucleus Model                        ... NOT USED
CABS basis                                  ... NOT available
Auxiliary Coulomb fitting basis             ... AVAILABLE
   # of basis functions in Aux-J            ...    588
   # of shells in Aux-J                     ...    180
   Maximum angular momentum in Aux-J        ...      4
Auxiliary J/K fitting basis                 ... NOT available
Auxiliary Correlation fitting basis         ... NOT available
Auxiliary 'external' fitting basis          ... NOT available

Checking pre-screening integrals            ... done (  0.0 sec) Dimension = 132
   => SHARK Basis and OBASIS are compatible. Storing Pre-screening
Shell pair information
Shell pair cut-off parameter TPreSel        ...   2.5e-12
Total number of shell pairs                 ...      8778
Shell pairs after pre-screening             ...      8460
Total number of primitive shell pairs       ...     29184
Primitive shell pairs kept                  ...     21408
          la=0 lb=0:   1644 shell pairs
          la=1 lb=0:   2112 shell pairs
          la=1 lb=1:    666 shell pairs
          la=2 lb=0:   1380 shell pairs
          la=2 lb=1:    864 shell pairs
          la=2 lb=2:    300 shell pairs
          la=3 lb=0:    696 shell pairs
          la=3 lb=1:    432 shell pairs
          la=3 lb=2:    288 shell pairs
          la=3 lb=3:     78 shell pairs

Checking whether 4 symmetric matrices of dimension 372 fit in memory
:Max Core in MB      =   2500.00
 MB in use           =     14.68
 MB left             =   2485.32
 MB needed           =      2.12
 Data fit in memory  = YES
Calculating RI/J V-Matrix + Cholesky decomp.... done (  0.1 sec)
Calculating Nuclear repulsion               ... done (  0.0 sec) ENN=    348.479637796166 Eh

Diagonalization of the overlap matrix:
Smallest eigenvalue                        ... 1.037e-05
Time for diagonalization                   ...    0.021 sec
Threshold for overlap eigenvalues          ... 1.000e-07
Number of eigenvalues below threshold      ... 0
Time for construction of square roots      ...    0.019 sec
Total time needed                          ...    0.056 sec

-------------------
DFT GRID GENERATION
-------------------

General Integration Accuracy     IntAcc      ... 4.388
Radial Grid Type                 RadialGrid  ... OptM3 with GC (2021)
Angular Grid (max. ang.)         AngularGrid ... 4 (Lebedev-302)
Angular grid pruning method      GridPruning ... 4 (adaptive)
Weight generation scheme         WeightScheme... mBecke (2022)
Basis function cutoff            BFCut       ... 1.0000e-11
Integration weight cutoff        WCut        ... 1.0000e-14
Partially contracted basis set               ... off
Rotationally invariant grid construction     ... off
Angular grids for H and He will be reduced by one unit

Total number of grid points                  ...    70933
Total number of batches                      ...     1115
Average number of points per batch           ...       63
Average number of grid points per atom       ...     5911

--------------------
COSX GRID GENERATION
--------------------

GRIDX 1
-------
General Integration Accuracy     IntAcc      ... 3.816
Radial Grid Type                 RadialGrid  ... OptM3 with GC (2021)
Angular Grid (max. ang.)         AngularGrid ... 1 (Lebedev-50)
Angular grid pruning method      GridPruning ... 4 (adaptive)
Weight generation scheme         WeightScheme... mBecke (2022)
Basis function cutoff            BFCut       ... 1.0000e-11
Integration weight cutoff        WCut        ... 1.0000e-14
Partially contracted basis set               ... on
Rotationally invariant grid construction     ... off
Angular grids for H and He will be reduced by one unit

Total number of grid points                  ...     8901
Total number of batches                      ...       76
Average number of points per batch           ...      117
Average number of grid points per atom       ...      742
UseSFitting                                  ... on

GRIDX 2
-------
General Integration Accuracy     IntAcc      ... 4.020
Radial Grid Type                 RadialGrid  ... OptM3 with GC (2021)
Angular Grid (max. ang.)         AngularGrid ... 2 (Lebedev-110)
Angular grid pruning method      GridPruning ... 4 (adaptive)
Weight generation scheme         WeightScheme... mBecke (2022)
Basis function cutoff            BFCut       ... 1.0000e-11
Integration weight cutoff        WCut        ... 1.0000e-14
Partially contracted basis set               ... on
Rotationally invariant grid construction     ... off
Angular grids for H and He will be reduced by one unit

Total number of grid points                  ...    21119
Total number of batches                      ...      169
Average number of points per batch           ...      124
Average number of grid points per atom       ...     1760
UseSFitting                                  ... on

GRIDX 3
-------
General Integration Accuracy     IntAcc      ... 4.338
Radial Grid Type                 RadialGrid  ... OptM3 with GC (2021)
Angular Grid (max. ang.)         AngularGrid ... 3 (Lebedev-194)
Angular grid pruning method      GridPruning ... 4 (adaptive)
Weight generation scheme         WeightScheme... mBecke (2022)
Basis function cutoff            BFCut       ... 1.0000e-11
Integration weight cutoff        WCut        ... 1.0000e-14
Partially contracted basis set               ... on
Rotationally invariant grid construction     ... off
Angular grids for H and He will be reduced by one unit

Total number of grid points                  ...    46818
Total number of batches                      ...      373
Average number of points per batch           ...      125
Average number of grid points per atom       ...     3902
UseSFitting                                  ... on
Grids setup in   2.1 sec
Initializing property integral containers    ... done (  0.0 sec)

SHARK setup successfully completed in   2.7 seconds

Maximum memory used throughout the entire STARTUP-calculation: 30.0 MB


           ************************************************************
           *        Program running with 8 parallel MPI-processes     *
           *              working on a common directory               *
           ************************************************************
-------------------------------------------------------------------------------
                                 ORCA GUESS
                   Start orbitals & Density for SCF / CASSCF
-------------------------------------------------------------------------------

------------
SCF SETTINGS
------------
Hamiltonian:
 Density Functional     Method          .... DFT(GTOs)
 Exchange Functional    Exchange        .... B88
   X-Alpha parameter    XAlpha          ....  0.666667
   Becke's b parameter  XBeta           ....  0.004200
 Correlation Functional Correlation     .... LYP
 LDA part of GGA corr.  LDAOpt          .... VWN-5
 Gradients option       PostSCFGGA      .... off
 Hybrid DFT is turned on
   Fraction HF Exchange ScalHFX         ....  0.200000
   Scaling of DF-GGA-X  ScalDFX         ....  0.720000
   Scaling of DF-GGA-C  ScalDFC         ....  0.810000
   Scaling of DF-LDA-C  ScalLDAC        ....  1.000000
   Perturbative correction              ....  0.000000
   NL short-range parameter             ....  4.800000
 RI-approximation to the Coulomb term is turned on
   Number of AuxJ basis functions       .... 588
   RIJ-COSX (HFX calculated with COS-X)).... on


General Settings:
 Integral files         IntName         .... rank03_quasi_planar_nn2.00
 Hartree-Fock type      HFTyp           .... RHF
 Total Charge           Charge          ....    0
 Multiplicity           Mult            ....    1
 Number of Electrons    NEL             ....   60
 Basis Dimension        Dim             ....  372
 Nuclear Repulsion      ENuc            ....    348.4796377962 Eh

Convergence Acceleration:
 AO-DIIS                CNVDIIS         .... on
   Start iteration      DIISMaxIt       ....    12
   Startup error        DIISStart       ....  0.200000
   # of expansion vecs  DIISMaxEq       ....     5
   Bias factor          DIISBfac        ....   1.050
   Max. coefficient     DIISMaxC        ....  10.000
 MO-DIIS                CNVKDIIS        .... off
 Trust-Rad. Augm. Hess. CNVTRAH         .... auto
   Auto Start mean grad. ratio tolernc. ....  1.125000
   Auto Start start iteration           ....    50
   Auto Start num. interpolation iter.  ....    10
   Max. Number of Micro iterations      ....    24
   Max. Number of Macro iterations      .... Maxiter - #DIIS iter
   Number of Davidson start vectors     ....     2
   Converg. threshold    (grad. norm)   ....   1.000e-05
   Grad. Scal. Fac. for Micro threshold ....   0.100
   Minimum threshold for Micro iter.    ....   1.000e-02
   NR start threshold (gradient norm)   ....   1.000e-04
   Initial trust radius                 ....   0.400
   Minimum AH scaling param. (alpha)    ....   1.000
   Maximum AH scaling param. (alpha)    .... 1000.000
   Quad. conv. algorithm                .... NR
   White noise on init. David. guess    .... on
   Maximum white noise                  ....   0.010
   Pseudo random numbers                .... off
   Inactive MOs                         .... canonical
   Orbital update algorithm             .... Taylor
   Preconditioner                       .... Diag
   Full preconditioner red. dimension   ....   250
 SOSCF                 CNVSOSCF           .... on
   Start iteration     SOSCFMaxIt         ....   150
   Startup grad/error  SOSCFStart         ....  0.003300
   Hessian update      SOSCFHessUp        .... L-BFGS
   Autom. constraints  SOSCFAutoConstrain .... off
 Level Shifting         CNVShift        .... on
   Level shift para.    LevelShift      ....    0.2500
   Turn off err/grad.   ShiftErr        ....    0.0010
 Zerner damping         CNVZerner       .... off
 Static damping         CNVDamp         .... on
   Fraction old density DampFac         ....    0.7000
   Max. Damping (<1)    DampMax         ....    0.9800
   Min. Damping (>=0)   DampMin         ....    0.0000
   Turn off err/grad.   DampErr         ....    0.1000

SCF Procedure:
 Maximum # iterations   MaxIter         ....   125
 SCF integral mode      SCFMode         .... Direct
   Integral package                     .... SHARK and LIBINT hybrid scheme
 Reset frequency        DirectResetFreq ....    20
 Integral Threshold     Thresh          ....  2.500e-11 Eh
 Primitive CutOff       TCut            ....  2.500e-12 Eh

Convergence Tolerance:
 Convergence Check Mode ConvCheckMode   .... Total+1el-Energy
 Convergence forced     ConvForced      .... 0
 Energy Change          TolE            ....  1.000e-08 Eh
 1-El. energy change                    ....  1.000e-05 Eh
 Orbital Gradient       TolG            ....  1.000e-05
 Orbital Rotation angle TolX            ....  1.000e-05
 DIIS Error             TolErr          ....  5.000e-07

------------------------------
INITIAL GUESS: MODEL POTENTIAL
------------------------------
Loading Hartree-Fock densities                     ... done
Calculating cut-offs                               ... done
Initializing the effective Hamiltonian             ... done
Setting up the integral package (SHARK)            ... done
Starting the Coulomb interaction                   ... done (   0.2 sec)
Making the grid                                    ... done (   0.2 sec)
Mapping shells                                     ... done
Starting the XC term evaluation                    ... done (   0.2 sec)
  promolecular density results
     # of electrons  =     60.000401409
     EX              =    -45.921968621
     EC              =     -1.894314908
     EX+EC           =    -47.816283529
Transforming the Hamiltonian                       ... done (   0.0 sec)
Diagonalizing the Hamiltonian                      ... done (   0.0 sec)
Back transforming the eigenvectors                 ... done (   0.0 sec)
Now organizing SCF variables                       ... done
                      ------------------
                      INITIAL GUESS DONE (   0.7 sec)
                      ------------------
             **** ENERGY FILE WAS UPDATED (rank03_quasi_planar_nn2.00.en.tmp) ****
Finished Guess after   1.2 sec
Maximum memory used throughout the entire GUESS-calculation: 22.5 MB


           ************************************************************
           *        Program running with 8 parallel MPI-processes     *
           *              working on a common directory               *
           ************************************************************

-------------------------------------------------------------------------------------------
                                      ORCA LEAN-SCF
                              memory conserving SCF solver
-------------------------------------------------------------------------------------------

----------------------------------------D-I-I-S--------------------------------------------
Iteration    Energy (Eh)           Delta-E    RMSDP     MaxDP     DIISErr   Damp  Time(sec)
-------------------------------------------------------------------------------------------
               ***  Starting incremental Fock matrix formation  ***
    1    -297.4711981139157047     0.00e+00  6.52e-03  8.46e-02  1.34e-01  0.700   4.3
    2    -297.6386534758467519    -1.67e-01  4.48e-03  4.06e-02  7.00e-02  0.700   4.7
                               ***Turning on AO-DIIS***
    3    -297.7078135504738725    -6.92e-02  2.39e-03  2.17e-02  2.90e-02  0.700   3.7
    4    -297.7481982744512266    -4.04e-02  5.29e-03  5.17e-02  1.65e-02  0.000   3.2
    5    -297.8346295862190232    -8.64e-02  7.92e-04  1.06e-02  6.66e-03  0.000   3.4
                              *** Initializing SOSCF ***
---------------------------------------S-O-S-C-F--------------------------------------
Iteration    Energy (Eh)           Delta-E    RMSDP     MaxDP     MaxGrad    Time(sec)
--------------------------------------------------------------------------------------
    6    -297.8357353057123760    -1.11e-03  5.89e-04  1.36e-02  1.63e-03     2.6
               *** Restarting incremental Fock matrix formation ***
    7    -297.8358195512515181    -8.42e-05  7.93e-04  2.04e-02  3.98e-04     4.5
    8    -297.8358339270214969    -1.44e-05  2.26e-04  5.66e-03  2.34e-04     3.7
    9    -297.8358373834674353    -3.46e-06  1.40e-04  3.47e-03  1.77e-04     3.4
   10    -297.8358380599909765    -6.77e-07  6.76e-05  1.75e-03  1.46e-04     3.5
   11    -297.8358385014215060    -4.41e-07  4.69e-05  1.10e-03  6.16e-05     3.6
   12    -297.8358387227432900    -2.21e-07  7.48e-06  1.68e-04  1.83e-05     3.2
   13    -297.8358387519371604    -2.92e-08  6.88e-06  1.65e-04  1.17e-05     3.3
   14    -297.8358387388320239     1.31e-08  3.63e-06  8.91e-05  2.17e-05     3.0
   15    -297.8358387525491366    -1.37e-08  4.44e-06  9.86e-05  3.40e-06     3.1
   16    -297.8358387554318938    -2.88e-09  3.65e-06  3.98e-05  1.69e-06     2.9
                 **** Energy Check signals convergence ****

               *****************************************************
               *                     SUCCESS                       *
               *           SCF CONVERGED AFTER  16 CYCLES          *
               *****************************************************

Recomputing exchange energy using gridx3       ... done (    6.706 sec)
Old exchange energy                            :     -9.312430489 Eh
New exchange energy                            :     -9.312425909 Eh
Exchange energy change after final integration :      0.000004579 Eh
Total energy after final integration           :   -297.835834167 Eh
             **** ENERGY FILE WAS UPDATED (rank03_quasi_planar_nn2.00.en.tmp) ****

----------------
TOTAL SCF ENERGY
----------------

Total Energy       :       -297.83583416747791 Eh           -8104.52507 eV

Components:
Nuclear Repulsion  :        348.47963779616595 Eh            9482.61303 eV
Electronic Energy  :       -646.31547654305677 Eh          -17587.13823 eV
One Electron Energy:      -1085.71336368293009 Eh          -29543.76260 eV
Two Electron Energy:        439.39788713987332 Eh           11956.62437 eV

Virial components:
Potential Energy   :       -593.60222688475551 Eh          -16152.73778 eV
Kinetic Energy     :        295.76639271727754 Eh            8048.21271 eV
Virial Ratio       :          2.00699687828353

DFT components:
N(Alpha)           :       29.999994033175 electrons
N(Beta)            :       29.999994033175 electrons
N(Total)           :       59.999988066350 electrons
E(X)               :      -36.939854662299 Eh       
E(C)               :       -2.272675645183 Eh       
E(XC)              :      -39.212530307482 Eh       

---------------
SCF CONVERGENCE
---------------

  Last Energy change         ...    2.8828e-09  Tolerance :   1.0000e-08
  Last MAX-Density change    ...    3.9777e-05  Tolerance :   1.0000e-07
  Last RMS-Density change    ...    3.6488e-06  Tolerance :   5.0000e-09
  Last DIIS Error            ...    1.6282e-03  Tolerance :   5.0000e-07
  Last Orbital Gradient      ...    1.6912e-06  Tolerance :   1.0000e-05
  Last Orbital Rotation      ...    5.0903e-06  Tolerance :   1.0000e-05


----------------
ORBITAL ENERGIES
----------------

  NO   OCC          E(Eh)            E(eV) 
   0   2.0000      -6.802934      -185.1172 
   1   2.0000      -6.802928      -185.1171 
   2   2.0000      -6.802909      -185.1166 
   3   2.0000      -6.799787      -185.0316 
   4   2.0000      -6.799218      -185.0161 
   5   2.0000      -6.799195      -185.0155 
   6   2.0000      -6.778835      -184.4615 
   7   2.0000      -6.778811      -184.4608 
   8   2.0000      -6.778795      -184.4604 
   9   2.0000      -6.778052      -184.4402 
  10   2.0000      -6.778025      -184.4394 
  11   2.0000      -6.778013      -184.4391 
  12   2.0000      -0.772465       -21.0198 
  13   2.0000      -0.687225       -18.7003 
  14   2.0000      -0.687217       -18.7001 
  15   2.0000      -0.571488       -15.5510 
  16   2.0000      -0.571480       -15.5508 
  17   2.0000      -0.567098       -15.4315 
  18   2.0000      -0.450518       -12.2592 
  19   2.0000      -0.402232       -10.9453 
  20   2.0000      -0.382237       -10.4012 
  21   2.0000      -0.359150        -9.7730 
  22   2.0000      -0.359144        -9.7728 
  23   2.0000      -0.339374        -9.2348 
  24   2.0000      -0.339370        -9.2347 
  25   2.0000      -0.309250        -8.4151 
  26   2.0000      -0.284650        -7.7457 
  27   2.0000      -0.284630        -7.7452 
  28   2.0000      -0.257774        -7.0144 
  29   2.0000      -0.257755        -7.0139 
  30   0.0000      -0.126719        -3.4482 
  31   0.0000      -0.126713        -3.4480 
  32   0.0000      -0.117549        -3.1987 
  33   0.0000      -0.094371        -2.5680 
  34   0.0000      -0.036995        -1.0067 
  35   0.0000      -0.036968        -1.0059 
  36   0.0000      -0.005961        -0.1622 
  37   0.0000      -0.002708        -0.0737 
  38   0.0000      -0.002636        -0.0717 
  39   0.0000       0.001571         0.0427 
  40   0.0000       0.009630         0.2620 
*Only the first 10 virtual orbitals were printed.

                    ********************************
                    * MULLIKEN POPULATION ANALYSIS *
                    ********************************

-----------------------
MULLIKEN ATOMIC CHARGES
-----------------------
   0 B :    0.289034
   1 B :    0.289000
   2 B :    0.288686
   3 B :   -0.157504
   4 B :    0.025374
   5 B :   -0.157451
   6 B :   -0.157248
   7 B :    0.025958
   8 B :   -0.157318
   9 B :   -0.157483
  10 B :    0.026221
  11 B :   -0.157268
Sum of atomic charges:   -0.0000000

--------------------------------
MULLIKEN REDUCED ORBITAL CHARGES
--------------------------------
  0 B s       :     2.809408  s :     2.809408
      pz      :     0.642497  p :     1.723970
      px      :     0.518772
      py      :     0.562701
      dz2     :     0.014008  d :     0.161837
      dxz     :     0.017069
      dyz     :     0.021609
      dx2y2   :     0.062297
      dxy     :     0.046854
      f0      :     0.002156  f :     0.015751
      f+1     :     0.001713
      f-1     :     0.001314
      f+2     :     0.001084
      f-2     :     0.000969
      f+3     :     0.005017
      f-3     :     0.003499

  1 B s       :     2.808087  s :     2.808087
      pz      :     0.642830  p :     1.725815
      px      :     0.561851
      py      :     0.521134
      dz2     :     0.013904  d :     0.161339
      dxz     :     0.021432
      dyz     :     0.017204
      dx2y2   :     0.059775
      dxy     :     0.049023
      f0      :     0.002162  f :     0.015760
      f+1     :     0.001325
      f-1     :     0.001701
      f+2     :     0.001066
      f-2     :     0.000984
      f+3     :     0.005021
      f-3     :     0.003501

  2 B s       :     2.809800  s :     2.809800
      pz      :     0.642222  p :     1.724107
      px      :     0.542388
      py      :     0.539498
      dz2     :     0.014015  d :     0.161660
      dxz     :     0.019466
      dyz     :     0.019249
      dx2y2   :     0.041339
      dxy     :     0.067592
      f0      :     0.002156  f :     0.015747
      f+1     :     0.001501
      f-1     :     0.001522
      f+2     :     0.000929
      f-2     :     0.001124
      f+3     :     0.005017
      f-3     :     0.003498

  3 B s       :     3.337838  s :     3.337838
      pz      :     0.423511  p :     1.741431
      px      :     0.545802
      py      :     0.772118
      dz2     :     0.008255  d :     0.072863
      dxz     :     0.013295
      dyz     :     0.010245
      dx2y2   :     0.021737
      dxy     :     0.019331
      f0      :     0.000984  f :     0.005372
      f+1     :     0.000732
      f-1     :    -0.000178
      f+2     :     0.000235
      f-2     :     0.000644
      f+3     :     0.001331
      f-3     :     0.001623

  4 B s       :     3.163163  s :     3.163163
      pz      :     0.424292  p :     1.709276
      px      :     0.647981
      py      :     0.637004
      dz2     :     0.003886  d :     0.093158
      dxz     :     0.019227
      dyz     :     0.018721
      dx2y2   :     0.028803
      dxy     :     0.022521
      f0      :     0.001654  f :     0.009028
      f+1     :     0.000382
      f-1     :     0.000428
      f+2     :     0.000836
      f-2     :     0.000871
      f+3     :     0.002644
      f-3     :     0.002213

  5 B s       :     3.338053  s :     3.338053
      pz      :     0.423435  p :     1.741124
      px      :     0.775011
      py      :     0.542678
      dz2     :     0.008248  d :     0.072902
      dxz     :     0.009876
      dyz     :     0.013667
      dx2y2   :     0.022995
      dxy     :     0.018115
      f0      :     0.000985  f :     0.005372
      f+1     :    -0.000188
      f-1     :     0.000740
      f+2     :     0.000165
      f-2     :     0.000714
      f+3     :     0.002111
      f-3     :     0.000844

  6 B s       :     3.337567  s :     3.337567
      pz      :     0.423631  p :     1.741408
      px      :     0.684803
      py      :     0.632974
      dz2     :     0.008266  d :     0.072900
      dxz     :     0.014156
      dyz     :     0.009397
      dx2y2   :     0.014608
      dxy     :     0.026474
      f0      :     0.000985  f :     0.005372
      f+1     :     0.000151
      f-1     :     0.000403
      f+2     :     0.000858
      f-2     :     0.000022
      f+3     :     0.001332
      f-3     :     0.001622

  7 B s       :     3.162422  s :     3.162422
      pz      :     0.424337  p :     1.709510
      px      :     0.546825
      py      :     0.738349
      dz2     :     0.003864  d :     0.093085
      dxz     :     0.014644
      dyz     :     0.023318
      dx2y2   :     0.023762
      dxy     :     0.027496
      f0      :     0.001653  f :     0.009026
      f+1     :     0.000796
      f-1     :     0.000014
      f+2     :     0.000865
      f-2     :     0.000843
      f+3     :     0.002642
      f-3     :     0.002214

  8 B s       :     3.337306  s :     3.337306
      pz      :     0.423701  p :     1.741733
      px      :     0.580469
      py      :     0.737563
      dz2     :     0.008266  d :     0.072907
      dxz     :     0.015712
      dyz     :     0.007840
      dx2y2   :     0.024346
      dxy     :     0.016743
      f0      :     0.000984  f :     0.005372
      f+1     :     0.000571
      f-1     :    -0.000016
      f+2     :     0.000305
      f-2     :     0.000575
      f+3     :     0.002111
      f-3     :     0.000842

  9 B s       :     3.337272  s :     3.337272
      pz      :     0.423510  p :     1.741924
      px      :     0.746350
      py      :     0.572064
      dz2     :     0.008257  d :     0.072915
      dxz     :     0.007872
      dyz     :     0.015682
      dx2y2   :     0.025284
      dxy     :     0.015819
      f0      :     0.000986  f :     0.005372
      f+1     :    -0.000052
      f-1     :     0.000605
      f+2     :     0.000226
      f-2     :     0.000654
      f+3     :     0.001331
      f-3     :     0.001622

 10 B s       :     3.162525  s :     3.162525
      pz      :     0.424148  p :     1.709122
      px      :     0.732458
      py      :     0.552516
      dz2     :     0.003866  d :     0.093109
      dxz     :     0.023035
      dyz     :     0.014900
      dx2y2   :     0.024349
      dxy     :     0.026958
      f0      :     0.001653  f :     0.009023
      f+1     :     0.000036
      f-1     :     0.000772
      f+2     :     0.000859
      f-2     :     0.000846
      f+3     :     0.002643
      f-3     :     0.002214

 11 B s       :     3.337377  s :     3.337377
      pz      :     0.423492  p :     1.741628
      px      :     0.621298
      py      :     0.696838
      dz2     :     0.008262  d :     0.072890
      dxz     :     0.009735
      dyz     :     0.013817
      dx2y2   :     0.014295
      dxy     :     0.026782
      f0      :     0.000985  f :     0.005373
      f+1     :     0.000450
      f-1     :     0.000105
      f+2     :     0.000850
      f-2     :     0.000029
      f+3     :     0.002111
      f-3     :     0.000843



                     *******************************
                     * LOEWDIN POPULATION ANALYSIS *
                     *******************************

----------------------
LOEWDIN ATOMIC CHARGES
----------------------
   0 B :   -0.212839
   1 B :   -0.213321
   2 B :   -0.212915
   3 B :    0.080551
   4 B :    0.051841
   5 B :    0.080643
   6 B :    0.080610
   7 B :    0.051970
   8 B :    0.080525
   9 B :    0.080450
  10 B :    0.051994
  11 B :    0.080492

-------------------------------
LOEWDIN REDUCED ORBITAL CHARGES
-------------------------------
  0 B s       :     2.410140  s :     2.410140
      pz      :     0.517399  p :     1.982101
      px      :     0.766051
      py      :     0.698651
      dz2     :     0.058765  d :     0.716679
      dxz     :     0.096485
      dyz     :     0.093886
      dx2y2   :     0.246421
      dxy     :     0.221122
      f0      :     0.008432  f :     0.103919
      f+1     :     0.008565
      f-1     :     0.006348
      f+2     :     0.010450
      f-2     :     0.008897
      f+3     :     0.034498
      f-3     :     0.026729

  1 B s       :     2.410065  s :     2.410065
      pz      :     0.517404  p :     1.982301
      px      :     0.700759
      py      :     0.764138
      dz2     :     0.058818  d :     0.717039
      dxz     :     0.094022
      dyz     :     0.096424
      dx2y2   :     0.242664
      dxy     :     0.225112
      f0      :     0.008440  f :     0.103915
      f+1     :     0.006405
      f-1     :     0.008493
      f+2     :     0.010196
      f-2     :     0.009103
      f+3     :     0.034527
      f-3     :     0.026752

  2 B s       :     2.410124  s :     2.410124
      pz      :     0.517377  p :     1.982126
      px      :     0.730395
      py      :     0.734354
      dz2     :     0.058786  d :     0.716750
      dxz     :     0.095155
      dyz     :     0.095265
      dx2y2   :     0.212333
      dxy     :     0.255212
      f0      :     0.008434  f :     0.103915
      f+1     :     0.007385
      f-1     :     0.007521
      f+2     :     0.008350
      f-2     :     0.010988
      f+3     :     0.034510
      f-3     :     0.026728

  3 B s       :     2.640415  s :     2.640415
      pz      :     0.425308  p :     1.940251
      px      :     0.612271
      py      :     0.902673
      dz2     :     0.029225  d :     0.281273
      dxz     :     0.040072
      dyz     :     0.033570
      dx2y2   :     0.085825
      dxy     :     0.092581
      f0      :     0.005761  f :     0.057510
      f+1     :     0.005164
      f-1     :     0.005436
      f+2     :     0.002874
      f-2     :     0.004912
      f+3     :     0.015521
      f-3     :     0.017843

  4 B s       :     2.579405  s :     2.579405
      pz      :     0.392545  p :     1.901841
      px      :     0.763239
      py      :     0.746057
      dz2     :     0.031953  d :     0.404615
      dxz     :     0.055438
      dyz     :     0.053208
      dx2y2   :     0.155058
      dxy     :     0.108958
      f0      :     0.006177  f :     0.062297
      f+1     :     0.005112
      f-1     :     0.005003
      f+2     :     0.003546
      f-2     :     0.004843
      f+3     :     0.019242
      f-3     :     0.018375

  5 B s       :     2.640478  s :     2.640478
      pz      :     0.425185  p :     1.940189
      px      :     0.907253
      py      :     0.607751
      dz2     :     0.029211  d :     0.281201
      dxz     :     0.032808
      dyz     :     0.040801
      dx2y2   :     0.085743
      dxy     :     0.092639
      f0      :     0.005767  f :     0.057489
      f+1     :     0.005443
      f-1     :     0.005151
      f+2     :     0.002600
      f-2     :     0.005176
      f+3     :     0.020154
      f-3     :     0.013197

  6 B s       :     2.640446  s :     2.640446
      pz      :     0.425292  p :     1.940236
      px      :     0.784159
      py      :     0.730785
      dz2     :     0.029229  d :     0.281216
      dxz     :     0.041560
      dyz     :     0.032038
      dx2y2   :     0.091509
      dxy     :     0.086881
      f0      :     0.005763  f :     0.057493
      f+1     :     0.005256
      f-1     :     0.005344
      f+2     :     0.005646
      f-2     :     0.002133
      f+3     :     0.015516
      f-3     :     0.017836

  7 B s       :     2.579481  s :     2.579481
      pz      :     0.392572  p :     1.901735
      px      :     0.606628
      py      :     0.902535
      dz2     :     0.031950  d :     0.404525
      dxz     :     0.035013
      dyz     :     0.073651
      dx2y2   :     0.118376
      dxy     :     0.145535
      f0      :     0.006174  f :     0.062289
      f+1     :     0.004126
      f-1     :     0.005987
      f+2     :     0.004584
      f-2     :     0.003813
      f+3     :     0.019227
      f-3     :     0.018377

  8 B s       :     2.640404  s :     2.640404
      pz      :     0.425407  p :     1.940304
      px      :     0.649767
      py      :     0.865129
      dz2     :     0.029234  d :     0.281260
      dxz     :     0.044876
      dyz     :     0.028753
      dx2y2   :     0.090908
      dxy     :     0.087489
      f0      :     0.005760  f :     0.057508
      f+1     :     0.005130
      f-1     :     0.005474
      f+2     :     0.003502
      f-2     :     0.004284
      f+3     :     0.020164
      f-3     :     0.013195

  9 B s       :     2.640384  s :     2.640384
      pz      :     0.425228  p :     1.940364
      px      :     0.875925
      py      :     0.639211
      dz2     :     0.029212  d :     0.281291
      dxz     :     0.028820
      dyz     :     0.044830
      dx2y2   :     0.090264
      dxy     :     0.088166
      f0      :     0.005766  f :     0.057511
      f+1     :     0.005482
      f-1     :     0.005115
      f+2     :     0.003149
      f-2     :     0.004635
      f+3     :     0.015522
      f-3     :     0.017843

 10 B s       :     2.579510  s :     2.579510
      pz      :     0.392389  p :     1.901667
      px      :     0.894016
      py      :     0.615263
      dz2     :     0.031947  d :     0.404531
      dxz     :     0.072478
      dyz     :     0.036127
      dx2y2   :     0.122529
      dxy     :     0.141451
      f0      :     0.006176  f :     0.062297
      f+1     :     0.005934
      f-1     :     0.004179
      f+2     :     0.004457
      f-2     :     0.003928
      f+3     :     0.019235
      f-3     :     0.018388

 11 B s       :     2.640410  s :     2.640410
      pz      :     0.425228  p :     1.940327
      px      :     0.715249
      py      :     0.799850
      dz2     :     0.029217  d :     0.281269
      dxz     :     0.032753
      dyz     :     0.040893
      dx2y2   :     0.090955
      dxy     :     0.087451
      f0      :     0.005763  f :     0.057503
      f+1     :     0.005326
      f-1     :     0.005272
      f+2     :     0.005577
      f-2     :     0.002206
      f+3     :     0.020161
      f-3     :     0.013198



                      *****************************
                      * MAYER POPULATION ANALYSIS *
                      *****************************

  NA   - Mulliken gross atomic population
  ZA   - Total nuclear charge
  QA   - Mulliken gross atomic charge
  VA   - Mayer's total valence
  BVA  - Mayer's bonded valence
  FA   - Mayer's free valence

  ATOM       NA         ZA         QA         VA         BVA        FA
  0 B      4.7110     5.0000     0.2890     3.2248     3.2248    -0.0000
  1 B      4.7110     5.0000     0.2890     3.2254     3.2254    -0.0000
  2 B      4.7113     5.0000     0.2887     3.2260     3.2260    -0.0000
  3 B      5.1575     5.0000    -0.1575     3.3237     3.3237     0.0000
  4 B      4.9746     5.0000     0.0254     3.3722     3.3722    -0.0000
  5 B      5.1575     5.0000    -0.1575     3.3236     3.3236    -0.0000
  6 B      5.1572     5.0000    -0.1572     3.3241     3.3241    -0.0000
  7 B      4.9740     5.0000     0.0260     3.3724     3.3724    -0.0000
  8 B      5.1573     5.0000    -0.1573     3.3243     3.3243     0.0000
  9 B      5.1575     5.0000    -0.1575     3.3244     3.3244     0.0000
 10 B      4.9738     5.0000     0.0262     3.3721     3.3721     0.0000
 11 B      5.1573     5.0000    -0.1573     3.3242     3.3242     0.0000

  Mayer bond orders larger than 0.100000
B(  0-B ,  1-B ) :   0.5888 B(  0-B ,  2-B ) :   0.5885 B(  0-B ,  3-B ) :   0.5074 
B(  0-B ,  4-B ) :   0.4436 B(  0-B , 10-B ) :   0.4435 B(  0-B , 11-B ) :   0.5075 
B(  1-B ,  2-B ) :   0.5888 B(  1-B ,  4-B ) :   0.4438 B(  1-B ,  5-B ) :   0.5075 
B(  1-B ,  6-B ) :   0.5075 B(  1-B ,  7-B ) :   0.4435 B(  2-B ,  7-B ) :   0.4436 
B(  2-B ,  8-B ) :   0.5079 B(  2-B ,  9-B ) :   0.5080 B(  2-B , 10-B ) :   0.4436 
B(  3-B ,  4-B ) :   1.0940 B(  3-B , 11-B ) :   1.4065 B(  4-B ,  5-B ) :   1.0940 
B(  5-B ,  6-B ) :   1.4062 B(  6-B ,  7-B ) :   1.0944 B(  7-B ,  8-B ) :   1.0940 
B(  8-B ,  9-B ) :   1.4064 B(  9-B , 10-B ) :   1.0940 B( 10-B , 11-B ) :   1.0941 


-------
TIMINGS
-------

Total SCF time: 0 days 0 hours 1 min 6 sec 

Total time                  ....      66.678 sec
Sum of individual times     ....      64.214 sec  ( 96.3%)

SCF preparation             ....       0.742 sec  (  1.1%)
Fock matrix formation       ....      59.230 sec  ( 88.8%)
  Startup                   ....       0.037 sec  (  0.1% of F)
  Split-RI-J                ....       6.402 sec  ( 10.8% of F)
  Chain of spheres X        ....      44.777 sec  ( 75.6% of F)
  XC integration            ....       9.720 sec  ( 16.4% of F)
    XC Preparation          ....       0.000 sec  (  0.0% of XC)
    Basis function eval.    ....       1.533 sec  ( 15.8% of XC)
    Density eval.           ....       2.290 sec  ( 23.6% of XC)
    XC-Functional eval.     ....       0.108 sec  (  1.1% of XC)
    XC-Potential eval.      ....       3.372 sec  ( 34.7% of XC)
Diagonalization             ....       0.000 sec  (  0.0%)
Density matrix formation    ....       0.489 sec  (  0.7%)
Total Energy calculation    ....       0.236 sec  (  0.4%)
Population analysis         ....       0.179 sec  (  0.3%)
Orbital Transformation      ....       0.616 sec  (  0.9%)
[...]
     33       0.209993   0.396145   0.097043  -0.053533  -0.089620  -0.205811
     34      -0.239900  -0.112540  -0.032494  -0.096423  -0.306990  -0.107917
     35       0.101532   0.115239   0.016208   0.050082  -0.020996   0.004780
                 30         31         32         33         34         35    
      0       0.468531   0.133052   0.168404  -0.486165  -0.000734  -0.066013
      1      -0.147244   0.145717  -0.040444   0.116968  -0.065722   0.001116
      2       0.143068   0.027847   0.019236  -0.092448   0.002272  -0.010033
      3      -0.113850   0.188586  -0.049147   0.141966  -0.056527   0.033523
      4      -0.202495  -0.435483   0.166707  -0.480388   0.034059   0.056675
      5      -0.047369  -0.137930   0.019545  -0.093143   0.007654   0.006991
      6       0.128409  -0.343092  -0.119695   0.344484   0.057491   0.031883
      7       0.328345  -0.193784  -0.126191   0.363076   0.032198  -0.057436
      8      -0.095489   0.110245   0.019494  -0.092812  -0.009826   0.003031
      9      -0.277257  -0.186340  -0.015510   0.140944  -0.021015  -0.038033
     10      -0.129208   0.046412   0.387050   0.122265  -0.048791   0.487031
     11      -0.079794  -0.046743  -0.020990   0.046169   0.004213  -0.009551
     12       0.162640   0.141806  -0.023832  -0.007859   0.106542   0.284175
     13      -0.155573  -0.133421  -0.024658  -0.008543  -0.068357  -0.280098
     14      -0.002524   0.002815   0.022858   0.000302  -0.004553   0.001363
     15      -0.039330   0.122156   0.387464   0.114876  -0.316484  -0.374516
     16       0.221608   0.254749   0.003971   0.147627  -0.012026   0.023898
     17       0.057389   0.072367  -0.021363   0.046290   0.009057   0.005659
     18      -0.080144  -0.243757  -0.327332  -0.176579   0.322507   0.246690
     19      -0.073199   0.243366  -0.207185   0.061363   0.236268   0.143407
     20      -0.000641   0.092640  -0.020995   0.046411   0.006124   0.008374
     21       0.012361  -0.068262   0.033401   0.011204  -0.090030  -0.045096
     22       0.056212  -0.282651  -0.008124  -0.002984  -0.397636  -0.083559
     23       0.003751   0.000642   0.022795   0.000267   0.000949  -0.004604
     24      -0.158103   0.289953  -0.197257  -0.185056  -0.228423   0.062536
     25       0.053567   0.135880   0.333431   0.026032   0.425223  -0.063721
     26       0.034048  -0.086037  -0.021023   0.046281  -0.009082   0.004951
     27      -0.127404  -0.044221   0.343579   0.035481   0.397288  -0.192683
     28      -0.271925   0.195100  -0.179632  -0.183583  -0.203287   0.068344
     29       0.080322  -0.045752  -0.021356   0.046244  -0.010638   0.001221
     30       0.267637  -0.093132  -0.010460  -0.003406  -0.276953   0.289602
     31       0.079552  -0.026356   0.032732   0.011115  -0.062831   0.103307
     32      -0.001235  -0.003562   0.022892   0.000273   0.003508   0.003187
     33      -0.243489   0.103252  -0.189613   0.070109   0.106338  -0.232070
     34       0.240362   0.050469  -0.337655  -0.172948   0.130904  -0.398964
     35      -0.091526   0.013468  -0.021093   0.046166   0.000322  -0.010588


-----------
IR SPECTRUM
-----------

 Mode   freq       eps      Int      T**2         TX        TY        TZ
       cm**-1   L/(mol*cm) km/mol    a.u.
----------------------------------------------------------------------------
  6:    200.66   0.000032    0.16  0.000051  ( 0.005293 -0.004737 -0.000226)
  7:    201.07   0.000032    0.16  0.000050  ( 0.004704  0.005279 -0.000524)
  8:    225.41   0.002498   12.62  0.003458  (-0.000107 -0.000016 -0.058807)
  9:    373.23   0.000000    0.00  0.000000  ( 0.000059 -0.000089  0.000003)
 10:    406.47   0.000320    1.62  0.000246  ( 0.009925 -0.012141 -0.000019)
 11:    406.56   0.000318    1.61  0.000244  (-0.012103 -0.009864  0.000095)
 12:    456.00   0.000045    0.23  0.000031  (-0.000070 -0.000022 -0.005571)
 13:    474.00   0.000175    0.88  0.000115  ( 0.005188  0.009398 -0.000007)
 14:    474.13   0.000174    0.88  0.000114  (-0.009352  0.005189  0.000013)
 15:    517.58   0.000002    0.01  0.000001  (-0.000764  0.000924  0.000001)
 16:    517.82   0.000002    0.01  0.000001  ( 0.000937  0.000732  0.000037)
 17:    526.32   0.000000    0.00  0.000000  ( 0.000107 -0.000011 -0.000016)
 18:    536.88   0.000024    0.12  0.000014  ( 0.000002  0.000027  0.003712)
 19:    576.49   0.002003   10.12  0.001084  ( 0.012507 -0.030462 -0.000012)
 20:    576.76   0.002003   10.12  0.001084  ( 0.030442  0.012536 -0.000015)
 21:    629.43   0.000001    0.00  0.000000  (-0.000544  0.000360  0.000007)
 22:    629.44   0.000001    0.00  0.000000  ( 0.000324  0.000487 -0.000037)
 23:    691.25   0.000113    0.57  0.000051  (-0.000003  0.000004 -0.007134)
 24:    829.72   0.000000    0.00  0.000000  (-0.000054  0.000006 -0.000007)
 25:    931.79   0.010254   51.82  0.003434  ( 0.027519 -0.051738 -0.000005)
 26:    931.90   0.010263   51.87  0.003437  (-0.051788 -0.027475  0.000034)
 27:    973.74   0.003789   19.15  0.001214  ( 0.018183  0.029726  0.000019)
 28:    973.81   0.003786   19.13  0.001213  (-0.029666  0.018254  0.000005)
 29:   1155.99   0.000000    0.00  0.000000  (-0.000082  0.000014 -0.000003)
 30:   1171.31   0.004926   24.90  0.001312  (-0.036191  0.001625 -0.000003)
 31:   1171.39   0.004932   24.92  0.001314  ( 0.001581  0.036212 -0.000018)
 32:   1221.97   0.000071    0.36  0.000018  ( 0.000036  0.000020 -0.004249)
 33:   1279.70   0.001636    8.27  0.000399  (-0.000007  0.000029  0.019972)
 34:   1336.37   0.001440    7.28  0.000336  (-0.008106 -0.016451 -0.000015)
 35:   1336.46   0.001442    7.29  0.000337  ( 0.016459 -0.008110  0.000001)

* The epsilon (eps) is given for a Dirac delta lineshape.
** The dipole moment derivative (T) already includes vibrational overlap.

The first frequency considered to be a vibration is 6
The total number of vibrations considered is 30


--------------------------
THERMOCHEMISTRY AT 298.15K
--------------------------

Temperature         ...   298.15 K
Pressure            ...     1.00 atm
Total Mass          ...   129.72 AMU
Quasi RRHO          ...     True
Cut-Off Frequency   ...     1.00 cm^-1

Throughout the following assumptions are being made:
  (1) The electronic state is orbitally nondegenerate
  (2) There are no thermally accessible electronically excited states
  (3) Hindered rotations indicated by low frequency modes are not
      treated as such but are treated as vibrations and this may
      cause some error
  (4) All equations used are the standard statistical mechanics
      equations for an ideal gas
  (5) All vibrations are strictly harmonic

freq.     200.66  E(vib)   ...       0.35 
freq.     201.07  E(vib)   ...       0.35 
freq.     225.41  E(vib)   ...       0.33 
freq.     373.23  E(vib)   ...       0.21 
freq.     406.47  E(vib)   ...       0.19 
freq.     406.56  E(vib)   ...       0.19 
freq.     456.00  E(vib)   ...       0.16 
freq.     474.00  E(vib)   ...       0.15 
freq.     474.13  E(vib)   ...       0.15 
freq.     517.58  E(vib)   ...       0.13 
freq.     517.82  E(vib)   ...       0.13 
freq.     526.32  E(vib)   ...       0.13 
freq.     536.88  E(vib)   ...       0.12 
freq.     576.49  E(vib)   ...       0.11 
freq.     576.76  E(vib)   ...       0.11 
freq.     629.43  E(vib)   ...       0.09 
freq.     629.44  E(vib)   ...       0.09 
freq.     691.25  E(vib)   ...       0.07 
freq.     829.72  E(vib)   ...       0.04 
freq.     931.79  E(vib)   ...       0.03 
freq.     931.90  E(vib)   ...       0.03 
freq.     973.74  E(vib)   ...       0.03 
freq.     973.81  E(vib)   ...       0.03 
freq.    1155.99  E(vib)   ...       0.01 
freq.    1171.31  E(vib)   ...       0.01 
freq.    1171.39  E(vib)   ...       0.01 
freq.    1221.97  E(vib)   ...       0.01 
freq.    1279.70  E(vib)   ...       0.01 
freq.    1336.37  E(vib)   ...       0.01 
freq.    1336.46  E(vib)   ...       0.01 

------------
INNER ENERGY
------------

The inner energy is: U= E(el) + E(ZPE) + E(vib) + E(rot) + E(trans)
    E(el)   - is the total energy from the electronic structure calculation
              = E(kin-el) + E(nuc-el) + E(el-el) + E(nuc-nuc)
    E(ZPE)  - the the zero temperature vibrational energy from the frequency calculation
    E(vib)  - the the finite temperature correction to E(ZPE) due to population
              of excited vibrational states
    E(rot)  - is the rotational thermal energy
    E(trans)- is the translational thermal energy

Summary of contributions to the inner energy U:
Electronic energy                ...   -297.87420820 Eh
Zero point energy                ...      0.04951287 Eh      31.07 kcal/mol
Thermal vibrational correction   ...      0.00526012 Eh       3.30 kcal/mol
Thermal rotational correction    ...      0.00141627 Eh       0.89 kcal/mol
Thermal translational correction ...      0.00141627 Eh       0.89 kcal/mol
-----------------------------------------------------------------------
Total thermal energy                   -297.81660267 Eh


Summary of corrections to the electronic energy:
(perhaps to be used in another calculation)
Total thermal correction                  0.00809266 Eh       5.08 kcal/mol
Non-thermal (ZPE) correction              0.04951287 Eh      31.07 kcal/mol
-----------------------------------------------------------------------
Total correction                          0.05760553 Eh      36.15 kcal/mol


--------
ENTHALPY
--------

The enthalpy is H = U + kB*T
                kB is Boltzmann's constant
Total thermal energy              ...   -297.81660267 Eh 
Thermal Enthalpy correction       ...      0.00094421 Eh       0.59 kcal/mol
-----------------------------------------------------------------------
Total Enthalpy                    ...   -297.81565847 Eh


WARNING (ORCA/SYM): A non-planar off-center atom subset has been encountered
in function TSymmetryFinder::FilterSubsetShapes() which cannot occur under
regular conditions. The full point group may not be assigned correctly. If the
symmetry appears to be too low, please try increasing the cleaning tolerance
using option SymThresh in the %symmetry input block. If the problem persists,
you may post a message in the ORCA forum.

Note: Only C1 symmetry has been detected, increase convergence thresholds 
      if your molecule has a higher symmetry. Symmetry factor of 1.0 is   
      used for the rotational entropy correction. 
 

Note: Rotational entropy computed according to Herzberg 
Infrared and Raman Spectra, Chapter V,1, Van Nostrand Reinhold, 1945 
Point Group:  C1, Symmetry Number:   1  
Rotational constants in cm-1:     0.060592     0.060588     0.031057 

Vibrational entropy computed according to the QRRHO of S. Grimme
Chem.Eur.J. 2012 18 9955 using a reference frequency of 100.0 cm-1


-------
ENTROPY
-------

The entropy contributions are T*S = T*(S(el)+S(vib)+S(rot)+S(trans))
     S(el)   - electronic entropy
     S(vib)  - vibrational entropy
     S(rot)  - rotational entropy
     S(trans)- translational entropy
The entropies will be listed as multiplied by the temperature to get
units of energy

Electronic entropy                ...      0.00000000 Eh      0.00 kcal/mol
Vibrational entropy               ...      0.00796454 Eh      5.00 kcal/mol
Rotational entropy                ...      0.01379700 Eh      8.66 kcal/mol
Translational entropy             ...      0.01923977 Eh     12.07 kcal/mol
-----------------------------------------------------------------------
Final entropy term                ...      0.04100131 Eh     25.73 kcal/mol

In case the symmetry of your molecule has not been determined correctly
or in case you have a reason to use a different symmetry number we print 
out the resulting rotational entropy values for sn=1,12:

 non-linear molecules -----------------------------------
|  sn= 1 | S(rot)=       0.01379700 Eh      8.66 kcal/mol|
|  sn= 2 | S(rot)=       0.01314254 Eh      8.25 kcal/mol|
|  sn= 3 | S(rot)=       0.01275971 Eh      8.01 kcal/mol|
|  sn= 4 | S(rot)=       0.01248809 Eh      7.84 kcal/mol|
|  sn= 5 | S(rot)=       0.01227740 Eh      7.70 kcal/mol|
|  sn= 6 | S(rot)=       0.01210526 Eh      7.60 kcal/mol|
|  sn= 7 | S(rot)=       0.01195971 Eh      7.50 kcal/mol|
|  sn= 8 | S(rot)=       0.01183363 Eh      7.43 kcal/mol|
|  sn= 9 | S(rot)=       0.01172242 Eh      7.36 kcal/mol|
|  sn=10 | S(rot)=       0.01162294 Eh      7.29 kcal/mol|
|  sn=11 | S(rot)=       0.01153295 Eh      7.24 kcal/mol|
|  sn=12 | S(rot)=       0.01145080 Eh      7.19 kcal/mol|
 linear molecules ---------------------------------------
|  Dinfh | S(rot)=       0.00860394 Eh      5.40 kcal/mol|
|  Cinfv | S(rot)=       0.00925839 Eh      5.81 kcal/mol|
 --------------------------------------------------------


-------------------
GIBBS FREE ENERGY
-------------------

The Gibbs free energy is G = H - T*S

Total enthalpy                    ...   -297.81565847 Eh 
Total entropy correction          ...     -0.04100131 Eh    -25.73 kcal/mol
-----------------------------------------------------------------------
Final Gibbs free energy         ...   -297.85665978 Eh

For completeness - the Gibbs free energy minus the electronic energy
G-E(el)                           ...      0.01754843 Eh     11.01 kcal/mol


Maximum memory used throughout the entire PROP-calculation: 94.8 MB

--------------------------------
SUGGESTED CITATIONS FOR THIS RUN
--------------------------------

Below you find a list of papers that are relevant to this ORCA run
We neither can nor want to force you to cite these papers, but we appreciate if you do
You receive ORCA, which is the product of decades of hard work by many enthusiastic individuals, for free
The only thing we kindly ask in return is that you cite our papers,
We deeply appreciate it, if you show your appreciation for ORCA by not just citing the generic ORCA reference.

Please note that relegating all ORCA citations to the supporting information does *not* help us.
SI sections are not indexed - citations you put there will not count into any citation statistics
But we need these citations in order to attract the funding resources that allow us to do what we are doing

Therefore, if you are a happy ORCA user, please consider citing a few of the papers listed below in the main body of your paper

In addition to the list printed below, the program has created the file rank03_quasi_planar_nn2.00.bibtex that contains the list in bibtex format
You can import this file easily into all common literature databanks and citation aid programs

It goes without saying that in many instances, there are alternative algorithms to achieve similar
results as the ones you have gotten from ORCA. It is, of course, also the case that in some instances
ORCA just re-implements algorithms worked out by others. We are fully aware of that and we are also
fully appreciative of our colleagues work. Hence this citation list should not be read as indicating
that the listed papers, which are focused on our own work, are the only ones worth citing. It simply
meant to make it easier for users to cite ORCA specific papers. It is not a substitute for doing your
own literature research and citing the relevant literature in a scientifically appropriate manner.

List of essential papers. We consider these as the minimum necessary citations

  1. Neese, F.
     Software update: the ORCA program system, version 6.0
     WIRES Comput. Molec. Sci. 2025 15(1), e70019
     doi.org/10.1002/wcms.70019

List of papers to cite with high priority. The work reported in these papers was absolutely
necessary for this run to complete.
Our perspective: the developers of density functionals and basis sets usually get cited in chemistry papers
Good! But without the algorithms to do something with them, the functionals or basis sets would not do anything.
Hence, in our opinion, the algorithm design and method developments papers are equally worthy of getting cited

  1. Neese, F.
     An improvement of the resolution of the identity approximation for the formation of the Coulomb matrix
     J. Comp. Chem. 2003 24(14), 1740-1747
     doi.org/10.1002/jcc.10318
  2. Neese, F.; Wennmohs, F.; Hansen, A.; Becker, U.
     Efficient, approximate and parallel Hartree-Fock and hybrid DFT calculations. A 'chain-of-spheres' algorithm for the Hartree-Fock exchange
     Chem. Phys. 2009 356(1-3), 98-109
     doi.org/10.1016/j.chemphys.2008.10.036
  3. Grimme, S.; Antony, J.; Ehrlich, S.; Krieg, H.
     A consistent and accurate ab initio parametrization of density functional dispersion correction (DFT-D) for the 94 elements H-Pu
     J. Chem. Phys. 2010 132 , 154104
     doi.org/10.1063/1.3382344
  4. Grimme, S.; Ehrlich, S.; Goerigk, L.
     Effect of the damping function in dispersion corrected density functional theory
     J. Comput. Chem. 2011 32(7), 1456-1465
     doi.org/10.1002/jcc.21759
  5. Bykov, D.; Petrenko, T.; Izsak, R.; Kossmann, S.; Becker, U.; Valeev, E.; Neese, F.
     Efficient implementation of the analytic second derivatives of Hartree-Fock and hybrid DFT energies: a detailed analysis of different approximations
     Molec. Phys. 2015 113 , 1961-1977
     doi.org/10.1080/00268976.2015.1025114
  6. Helmich-Paris, B.; de Souza, B.; Neese, F.; Izsák, R.
     An improved chain of spheres for exchange algorithm
     J. Chem. Phys. 2021 155(10), 104109
     doi.org/10.1063/5.0058766
  7. Neese, F.
     The SHARK Integral Generation and Digestion System
     J. Comp. Chem. 2022 44(3), 381
     doi.org/10.1002/jcc.26942

List of suggested additional citations. These are papers that are important in the 'surrounding' of 
of this run, or papers that preceded the highly important papers. If you like your results we are grateful for a citation.

  1. Izsak, R.; Neese, F.
     An overlap fitted chain of spheres exchange method
     J. Chem. Phys. 2011 135 , 144105
     doi.org/10.1063/1.3646921
  2. Izsak, R.; Hansen, A.; Neese, F.
     The resolution of identity and chain of spheres approximations for the LPNO-CCSD singles Fock term
     Molec. Phys. 2012 110 , 2413-2417
     doi.org/10.1080/00268976.2012.687466
  3. Neese, F.
     The ORCA program system
     WIRES Comput. Molec. Sci. 2012 2(1), 73-78
     doi.org/10.1002/wcms.81
  4. Izsak, R.; Neese, F.; Klopper, W.
     Robust fitting techniques in the chain of spheres approximation to the Fock exchange: The role of the complementary space
     J. Chem. Phys. 2013 139 , 
     doi.org/10.1063/1.4819264
  5. Neese, F.
     Software update: the ORCA program system, version 4.0
     WIRES Comput. Molec. Sci. 2018 8(1), 1-6
     doi.org/10.1002/wcms.1327
  6. Neese, F.; Wennmohs, F.; Becker, U.; Riplinger, C.
     The ORCA quantum chemistry program package
     J. Chem. Phys. 2020 152(22), 224108
     doi.org/10.1063/5.0004608
  7. Neese, F.
     Software update: The ORCA program system—Version 5.0
     WIRES Comput. Molec. Sci. 2022 12(1), e1606
     doi.org/10.1002/wcms.1606

List of optional additional citations

  1. Neese, F.
     Approximate second-order SCF convergence for spin unrestricted wavefunctions
     Chem. Phys. Lett. 2000 325(1-3), 93-98
     doi.org/10.1016/s0009-2614(00)00662-x

Timings for individual modules:

Sum of individual times          ...     1112.583 sec (=  18.543 min)
Startup calculation              ...       18.794 sec (=   0.313 min)   1.7 %
SCF iterations                   ...      276.376 sec (=   4.606 min)  24.8 %
Property integrals               ...      123.931 sec (=   2.066 min)  11.1 %
SCF Response                     ...      103.644 sec (=   1.727 min)   9.3 %
Property calculations            ...      422.829 sec (=   7.047 min)  38.0 %
SCF Gradient evaluation          ...      166.811 sec (=   2.780 min)  15.0 %
Geometry relaxation              ...        0.197 sec (=   0.003 min)   0.0 %
                             ****ORCA TERMINATED NORMALLY****
TOTAL RUN TIME: 0 days 0 hours 18 minutes 38 seconds 10 msec
