
                                 *****************
                                 * O   R   C   A *
                                 *****************

                                            #,                                       
                                            ###                                      
                                            ####                                     
                                            #####                                    
                                            ######                                   
                                           ########,                                 
                                     ,,################,,,,,                         
                               ,,#################################,,                 
                          ,,##########################################,,             
                       ,#########################################, ''#####,          
                    ,#############################################,,   '####,        
                  ,##################################################,,,,####,       
                ,###########''''           ''''###############################       
              ,#####''   ,,,,##########,,,,          '''####'''          '####       
            ,##' ,,,,###########################,,,                        '##       
           ' ,,###''''                  '''############,,,                           
         ,,##''                                '''############,,,,        ,,,,,,###''
      ,#''                                            '''#######################'''  
     '                                                          ''''####''''         
             ,#######,   #######,   ,#######,      ##                                
            ,#'     '#,  ##    ##  ,#'     '#,    #''#        ,####,    ,#,          
            ##       ##  ##   ,#'  ##            #'  '#       #'       ,# #          
            ##       ##  #######   ##           ,######,      #####,      #          
            '#,     ,#'  ##    ##  '#,     ,#' ,#      #,     #,   #      #          
             '#######'   ##     ##  '#######'  #'      '#     '####' #    #          



                #########################################################
                #                        -***-                          #
                #          Department of theory and spectroscopy        #
                #                                                       #
                #                      Frank Neese                      #
                #                                                       #
                #     Directorship, Architecture, Infrastructure        #
                #                    SHARK, DRIVERS                     #
                #        Core code/Algorithms in most modules           #
                #                                                       #
                #        Max Planck Institute fuer Kohlenforschung      #
                #                Kaiser Wilhelm Platz 1                 #
                #                 D-45470 Muelheim/Ruhr                 #
                #                      Germany                          #
                #                                                       #
                #                  All rights reserved                  #
                #                        -***-                          #
                #########################################################


                         Program Version 6.1.1  -  RELEASE   -
                                (GIT: $487d211c$)
                          ($2025-11-21 10:33:24 +0100$)
                                                                         
                                  - NO-DMRG VERSION -                    
                                                                         


 With contributions from (in alphabetic order):
[Max-Planck-Institut fuer Kohlenforschung]                               
  Daniel Aravena         : Magnetic Suceptibility                        
  Michael Atanasov       : Ab Initio Ligand Field Theory (pilot matlab implementation)
  Alexander A. Auer      : GIAO ZORA, VPT2 properties, NMR spectrum      
  Ute Becker             : All parallelization in ORCA, NUMFREQ, NUMCALC 
  Giovanni Bistoni       : ED, misc. LED, open-shell LED, HFLD           
  Dmytro Bykov           : pre 5.0 version of the SCF Hessian            
  Marcos Casanova-Páez   : Triplet and SCS-CIS(D). UHF-(DLPNO)-IP/EA/STEOM-CCSD. UHF-CVS-IP/STEOM-CCSD   
  Vijay G. Chilkuri      : MRCI spin determinant printing, contributions to CSF-ICE 
  Pauline Colinet        : FMM embedding                                 
  Dipayan Datta          : RHF DLPNO-CCSD density                        
  Achintya Kumar Dutta   : EOM-CC, STEOM-CC                              
  Nicolas Foglia         : Exact transition moments, OPA infrastructure, MCD improvements    
  Dmitry Ganyushin       : Spin-Orbit,Spin-Spin,Magnetic field MRCI      
  Miquel Garcia-Rates    : C-PCM and meta-GGA Hessian, CCSD/C-PCM, Gaussian charge scheme 
  Tiago L. C. Gouveia    : GS-ROHF, GS-ROCIS                             
  Yang Guo               : DLPNO-NEVPT2, F12-NEVPT2, CIM, IAO-localization        
  Andreas Hansen         : Spin unrestricted coupled pair/coupled cluster methods 
  Ingolf Harden          : AUTO-CI MPn and infrastructure                
  Benjamin Helmich-Paris : MC-RPA, TRAH-(SCF,CASSCF), AVAS, COSX integrals, SCF dyn. polar., MC-PDFT, srDFT 
  Lee Huntington         : MR-EOM, pCC                                   
  Robert Izsak           : Overlap fitted RIJCOSX, COSX-SCS-MP3, EOM     
  Riya Kayal             : Wick's Theorem for AUTO-CI, AUTO-CI UHF-CCSDT 
  Emily Kempfer          : AUTO-CI RHF CISDT and CCSDT, approximate NEVPT4
  Christian Kollmar      : KDIIS, OOCD, Brueckner-CCSD(T), CCSD density, CASPT2, CASPT2-K, improved NEVPT2 
  Axel Koslowski         : Symmetry handling                             
  Simone Kossmann        : meta-GGA functionals, TD-DFT gradient, OOMP2, (MP2 Hessian; deprecated post 5.0) 
  Lucas Lang             : DCDCAS, Hyperfine gauge corrections, ICE-SOC+SSC
  Marvin Lechner         : AUTO-CI (C++ implementation), FIC-MRCC        
  Spencer Leger          : CASSCF response                               
  Dagmar Lenk            : GEPOL surface, SMD, ORCA-2-JSON               
  Dimitrios Liakos       : Extrapolation schemes; Compound Job, Property file
  Dimitrios Manganas     : Further ROCIS development; embedding schemes. LFT, Crystal Embedding 
  Dimitrios Pantazis     : SARC Basis sets                               
  Anastasios Papadopoulos: AUTO-CI, single reference methods and gradients 
  Taras Petrenko         : pre 6.0 DFT Hessian and TD-DFT gradient,  ECA, NRVS 
  Petra Pikulova         : Analytic Raman intensities                    
  Peter Pinski           : DLPNO-MP2, DLPNO-MP2 Gradient                 
  Shashank Vittal Rao    : ES-AILFT, MagRelax                            
  Christoph Reimann      : Effective Core Potentials                     
  Marius Retegan         : Local ZFS, SOC                                
  Christoph Riplinger    : Optimizer, TS searches, QM/MM, DLPNO-CCSD(T), (RO)-DLPNO pert. Triples 
  Michael Roemelt        : Original ROCIS implementation, recursive CI coupling coefficients
  Masaaki Saitow         : Open-shell DLPNO-CCSD energy and density      
  Barbara Sandhoefer     : DKH picture change effects                    
  Yorick L. A. Schmerwitz: GMF and freeze-and-release deltaSCF, NEB S-IDPP initial path                    
  Kantharuban Sivalingam : CASSCF convergence/infrastructure, NEVPT2, NEVPT3, NEVPT4(SD), FIC-MRCI and CEPA variants
  Bernardo de Souza      : ESD, SOC TD-DFT                               
  Georgi L. Stoychev     : AutoAux, RI-MP2 NMR, DLPNO-MP2 response, X2C  
  Van Anh Tran           : RI-MP2 g-tensors                              
  Willem Van den Heuvel  : Paramagnetic NMR                              
  Zikuan Wang            : NOTCH, Electric field optimization            
  Frank Wennmohs         : Technical directorship and infrastructure     
  Hang Xu                : AUTO-CI-Response properties                   
                                                                         
[FACCTs GmbH]                                                            
  Markus Bursch, Nicolas Foglia, Miquel Garcia-Rates, Ingolf Harden, Hagen Neugebauer, Anastasios Papadopoulos, 
  Christoph Riplinger, Bernardo de Souza, Georgi L. Stoychev                                                    
                                                                 
  APM, various basis sets, CI-OPT, improved COSX, DLPNO-Multilevel,           
  DOCKER, DRACO, updates on ESD, Fragmentator, GOAT, IRC, LR-CPCM, L-BFGS, MBIS, meta-GGA TD-DFT gradient, ML-optimized integration grids, 
  MM, NACMEs, nearIR, NEB, NEB-TS, NL-DFT gradient (VV10), 2- and 3-layer-ONIOM, interface openCOSMO-RS, QMMM,   
  Crystal-QMMM, RESP, rigid body optimization, SF, symmetry and pop. for TD-DFT, various functionals, SOLVATOR                                   
                                                                         
[Other institutions]                                                     
  V. Asgeirsson          : NEB                                           
  Christoph Bannwarth    : sTDA-DFT, sTD-DFT, PBEh-3c, B97-3c, D3        
  Giovanni Bistoni       : ETS/NOCV, ADLD/ADEX, COVALED                  
  Martin Brehm           : Molecular dynamics                            
  Ronald Cardenas        : ETS/NOCV                                      
  Martina Colucci        : COVALED                                       
  Sebastian Ehlert       : rSCAN, r2SCAN, r2SCAN-3c, D4, dhf basis sets  
  Marvin Friede          : D4 for Fr, Ra, Ac-Lr                          
  Lars Goerigk           : TD-DFT with DH, B97 family of functionals     
  Stefan Grimme          : VdW corrections, initial TS optimization, DFT functionals, gCP, sTDA/sTD-DF 
  Waldemar Hujo          : DFT-NL                                        
  H. Jonsson             : NEB                                           
  Holger Kruse           : gCP                                           
  Marcel Mueller         : wB97X-3c, vDZP basis set                      
  Hagen Neugebauer       : wr2SCAN, Native XTB                           
  Gianluca Regni         : ADLD/ADEX                                     
  Tobias Risthaus        : pre 6.0 range-separated hybrid DFT and stability analysis
  Lukas Wittmann         : regularized MP2, r2SCAN double-hybrids, wr2SCAN        
                                                                         
We gratefully acknowledge several colleagues who have allowed us to      
interface, adapt or use parts of their codes:                            
  Ed Valeev, F. Pavosevic, A. Kumar             : LibInt (2-el integral package), F12 methods 
  Garnet Chan, S. Sharma, J. Yang, R. Olivares  : DMRG                   
  Ulf Ekstrom                                   : XCFun DFT Library      
  Mihaly Kallay                                 : mrcc  (arbitrary order and MRCC methods)
  Frank Weinhold                                : gennbo (NPA and NBO analysis)           
  Simon Mueller                                 : openCOSMO-RS                            
  Christopher J. Cramer and Donald G. Truhlar   : smd solvation model                     
  S Lehtola, MJT Oliveira, MAL Marques          : LibXC Library                           
  Liviu Ungur et al                             : ANISO software                          


 Your calculation uses the libint2 library for the computation of 2-el integrals
 For citations please refer to: http://libint.valeyev.net

 Your ORCA version has been built with support for libXC version: 7.0.0
 For citations please refer to: https://libxc.gitlab.io

 This ORCA versions uses:
   CBLAS   interface :  Fast vector & matrix operations
   LAPACKE interface :  Fast linear algebra routines
   SCALAPACK package :  Parallel linear algebra routines
   Shared memory     :  Shared parallel matrices
   BLAS/LAPACK       :  OpenBLAS 0.3.29  USE64BITINT DYNAMIC_ARCH NO_AFFINITY Zen SINGLE_THREADED
        Core in use  :  Zen
   Copyright (c) 2011-2014, The OpenBLAS Project


  ***********************************
  * Starting time: Thu Apr 23 11:03:30 2026
  * Host name:     vmi3233575
  * Process ID:    1149788
  * Working dir.:  /root/b12_scan/jobs/cuboctahedron_nn3.00
  ***********************************

NOTE: MaxCore=2500 MB was set to SCF,MP2,MDCI,CIPSI,MRCI,RASCI and CIS
      => If you want to overwrite this, your respective input block should be placed after the MaxCore statement
Your calculation utilizes the atom-pairwise dispersion correction
with the Becke-Johnson damping scheme (D3BJ)


================================================================================

----- Orbital basis set information -----
Your calculation utilizes the basis: def2-SVP
   F. Weigend and R. Ahlrichs, Phys. Chem. Chem. Phys. 7, 3297 (2005).

----- AuxJ basis set information -----
Your calculation utilizes the auxiliary basis: def2/J
   H-Rn: F. Weigend, Phys. Chem. Chem. Phys. 8, 1057 (2006).
   Fr-Lr: K. Eichkorn, F. Weigend, O. Treutler, R. Ahlrichs; Theor. Chem. Acc. 97, 119 (1997).

================================================================================
                                        WARNINGS
                       Please study these warnings very carefully!
================================================================================


WARNING: Geometry Optimization
  ===> : Switching off AutoStart
         For restart on a previous wavefunction, please use MOREAD

================================================================================
                                       INPUT FILE
================================================================================
NAME = cuboctahedron_nn3.00.inp
|  1> ! BP86 def2-SVP def2/J RI Opt TightSCF D3BJ
|  2> ! SlowConv
|  3> 
|  4> %pal nprocs 8 end
|  5> %maxcore 2500
|  6> 
|  7> %geom
|  8>   MaxIter 300
|  9> end
| 10> 
| 11> * xyz 0 1
| 12> B      0.00000000     -2.12132034     -2.12132034
| 13> B     -2.12132034      0.00000000     -2.12132034
| 14> B     -2.12132034     -2.12132034      0.00000000
| 15> B      0.00000000     -2.12132034      2.12132034
| 16> B     -2.12132034      0.00000000      2.12132034
| 17> B     -2.12132034      2.12132034      0.00000000
| 18> B      0.00000000      2.12132034     -2.12132034
| 19> B      2.12132034      0.00000000     -2.12132034
| 20> B      2.12132034     -2.12132034      0.00000000
| 21> B      0.00000000      2.12132034      2.12132034
| 22> B      2.12132034      0.00000000      2.12132034
| 23> B      2.12132034      2.12132034      0.00000000
| 24> *
| 25> 
| 26>                          ****END OF INPUT****
================================================================================

                       *****************************
                       * Geometry Optimization Run *
                       *****************************

Geometry optimization settings:
Update method            Update   .... BFGS
Choice of coordinates    CoordSys .... (2022) Redundant Internals
Initial Hessian          InHess   .... Almloef's Model
Max. no of cycles        MaxIter  .... 300

Convergence Tolerances:
Energy Change            TolE     ....  5.0000e-06 Eh
Max. Gradient            TolMAXG  ....  3.0000e-04 Eh/bohr
RMS Gradient             TolRMSG  ....  1.0000e-04 Eh/bohr
Max. Displacement        TolMAXD  ....  4.0000e-03 bohr
RMS Displacement         TolRMSD  ....  2.0000e-03 bohr
Strict Convergence                .... False

------------------------------------------------------------------------------
                        ORCA OPTIMIZATION COORDINATE SETUP
------------------------------------------------------------------------------

The optimization will be done in redundant internal coordinates (2022)
Making redundant internal coordinates   ...  (2022 redundants) done
Evaluating the initial hessian          ...  (Almloef) done
Evaluating the coordinates              ...  done
Calculating the B-matrix                .... done
Calculating the G-matrix                .... done
The number of degrees of freedom        ....  240

    -----------------------------------------------------------------
                    Redundant Internal Coordinates


    -----------------------------------------------------------------
         Definition                    Initial Value    Approx d2E/dq
    -----------------------------------------------------------------
      1. B(B   1,B   0)                  3.0000         0.010000   
      2. B(B   2,B   1)                  3.0000         0.010000   
      3. B(B   2,B   0)                  3.0000         0.010000   
      4. B(B   3,B   2)                  3.0000         0.010000   
      5. B(B   4,B   3)                  3.0000         0.010000   
      6. B(B   4,B   2)                  3.0000         0.010000   
      7. B(B   5,B   1)                  3.0000         0.010000   
      8. B(B   5,B   4)                  3.0000         0.010000   
      9. B(B   6,B   1)                  3.0000         0.010000   
     10. B(B   6,B   5)                  3.0000         0.010000   
     11. B(B   7,B   6)                  3.0000         0.010000   
     12. B(B   7,B   0)                  3.0000         0.010000   
     13. B(B   8,B   0)                  3.0000         0.010000   
     14. B(B   8,B   3)                  3.0000         0.010000   
     15. B(B   8,B   7)                  3.0000         0.010000   
     16. B(B   9,B   4)                  3.0000         0.010000   
     17. B(B   9,B   5)                  3.0000         0.010000   
     18. B(B  10,B   9)                  3.0000         0.010000   
     19. B(B  10,B   3)                  3.0000         0.010000   
     20. B(B  10,B   8)                  3.0000         0.010000   
     21. B(B  11,B   6)                  3.0000         0.010000   
     22. B(B  11,B  10)                  3.0000         0.010000   
     23. B(B  11,B   9)                  3.0000         0.010000   
     24. B(B  11,B   7)                  3.0000         0.010000   
     25. A(B   1,B   0,B   8)          120.0000         0.117373   
     26. A(B   7,B   0,B   8)           60.0000         0.117373   
     27. A(B   1,B   0,B   7)           90.0000         0.117373   
     28. A(B   1,B   0,B   2)           60.0000         0.117373   
     29. A(B   2,B   0,B   8)           90.0000         0.117373   
     30. A(B   2,B   0,B   7)          120.0000         0.117373   
     31. A(B   0,B   1,B   6)           90.0000         0.117373   
     32. A(B   2,B   1,B   5)           90.0000         0.117373   
     33. A(B   0,B   1,B   2)           60.0000         0.117373   
     34. A(B   0,B   1,B   5)          120.0000         0.117373   
     35. A(B   5,B   1,B   6)           60.0000         0.117373   
     36. A(B   2,B   1,B   6)          120.0000         0.117373   
     37. A(B   1,B   2,B   3)          120.0000         0.117373   
     38. A(B   3,B   2,B   4)           60.0000         0.117373   
     39. A(B   1,B   2,B   4)           90.0000         0.117373   
     40. A(B   0,B   2,B   1)           60.0000         0.117373   
     41. A(B   0,B   2,B   3)           90.0000         0.117373   
     42. A(B   0,B   2,B   4)          120.0000         0.117373   
     43. A(B   2,B   3,B   8)           90.0000         0.117373   
     44. A(B   2,B   3,B   4)           60.0000         0.117373   
     45. A(B   4,B   3,B  10)           90.0000         0.117373   
     46. A(B   8,B   3,B  10)           60.0000         0.117373   
     47. A(B   4,B   3,B   8)          120.0000         0.117373   
     48. A(B   2,B   3,B  10)          120.0000         0.117373   
     49. A(B   3,B   4,B   5)          120.0000         0.117373   
     50. A(B   2,B   4,B   9)          120.0000         0.117373   
     51. A(B   5,B   4,B   9)           60.0000         0.117373   
     52. A(B   3,B   4,B   9)           90.0000         0.117373   
     53. A(B   2,B   4,B   5)           90.0000         0.117373   
     54. A(B   2,B   4,B   3)           60.0000         0.117373   
     55. A(B   1,B   5,B   4)           90.0000         0.117373   
     56. A(B   4,B   5,B   6)          120.0000         0.117373   
     57. A(B   1,B   5,B   6)           60.0000         0.117373   
     58. A(B   4,B   5,B   9)           60.0000         0.117373   
     59. A(B   6,B   5,B   9)           90.0000         0.117373   
     60. A(B   1,B   5,B   9)          120.0000         0.117373   
     61. A(B   1,B   6,B   7)           90.0000         0.117373   
     62. A(B   1,B   6,B   5)           60.0000         0.117373   
     63. A(B   1,B   6,B  11)          120.0000         0.117373   
     64. A(B   7,B   6,B  11)           60.0000         0.117373   
     65. A(B   5,B   6,B  11)           90.0000         0.117373   
     66. A(B   5,B   6,B   7)          120.0000         0.117373   
     67. A(B   6,B   7,B   8)          120.0000         0.117373   
     68. A(B   0,B   7,B   6)           90.0000         0.117373   
     69. A(B   6,B   7,B  11)           60.0000         0.117373   
     70. A(B   8,B   7,B  11)           90.0000         0.117373   
     71. A(B   0,B   7,B  11)          120.0000         0.117373   
     72. A(B   0,B   7,B   8)           60.0000         0.117373   
     73. A(B   0,B   8,B   3)           90.0000         0.117373   
     74. A(B   3,B   8,B   7)          120.0000         0.117373   
     75. A(B   0,B   8,B   7)           60.0000         0.117373   
     76. A(B   3,B   8,B  10)           60.0000         0.117373   
     77. A(B   0,B   8,B  10)          120.0000         0.117373   
     78. A(B   7,B   8,B  10)           90.0000         0.117373   
     79. A(B   4,B   9,B  11)          120.0000         0.117373   
     80. A(B  10,B   9,B  11)           60.0000         0.117373   
     81. A(B   5,B   9,B  11)           90.0000         0.117373   
     82. A(B   4,B   9,B  10)           90.0000         0.117373   
     83. A(B   4,B   9,B   5)           60.0000         0.117373   
     84. A(B   5,B   9,B  10)          120.0000         0.117373   
     85. A(B   3,B  10,B  11)          120.0000         0.117373   
     86. A(B   8,B  10,B  11)           90.0000         0.117373   
     87. A(B   3,B  10,B   9)           90.0000         0.117373   
     88. A(B   8,B  10,B   9)          120.0000         0.117373   
     89. A(B   3,B  10,B   8)           60.0000         0.117373   
     90. A(B   9,B  10,B  11)           60.0000         0.117373   
     91. A(B   7,B  11,B   9)          120.0000         0.117373   
     92. A(B   6,B  11,B  10)          120.0000         0.117373   
     93. A(B   6,B  11,B   9)           90.0000         0.117373   
     94. A(B   6,B  11,B   7)           60.0000         0.117373   
     95. A(B   9,B  11,B  10)           60.0000         0.117373   
     96. A(B   7,B  11,B  10)           90.0000         0.117373   
     97. D(B   6,B   1,B   0,B   2)    125.2644         0.010000   
     98. D(B   5,B   1,B   0,B   7)    -54.7356         0.010000   
     99. D(B   2,B   1,B   0,B   8)    -70.5288         0.010000   
    100. D(B   5,B   1,B   0,B   2)     70.5288         0.010000   
    101. D(B   5,B   1,B   0,B   8)      0.0000         0.010000   
    102. D(B   2,B   1,B   0,B   7)   -125.2644         0.010000   
    103. D(B   1,B   2,B   0,B   7)     70.5288         0.010000   
    104. D(B   3,B   2,B   1,B   0)     70.5288         0.010000   
    105. D(B   3,B   2,B   1,B   5)    -54.7356         0.010000   
    106. D(B   3,B   2,B   0,B   7)    -54.7356         0.010000   
    107. D(B   1,B   2,B   0,B   8)    125.2644         0.010000   
    108. D(B   0,B   2,B   1,B   6)    -70.5288         0.010000   
    109. D(B   3,B   2,B   0,B   1)   -125.2644         0.010000   
    110. D(B   4,B   2,B   0,B   1)    -70.5288         0.010000   
    111. D(B   4,B   2,B   1,B   0)    125.2644         0.010000   
    112. D(B   3,B   2,B   1,B   6)      0.0000         0.010000   
    113. D(B   3,B   2,B   0,B   8)      0.0000         0.010000   
    114. D(B   0,B   2,B   1,B   5)   -125.2644         0.010000   
    115. D(B  10,B   3,B   2,B   1)      0.0000         0.010000   
    116. D(B   4,B   3,B   2,B   0)    125.2644         0.010000   
    117. D(B   8,B   3,B   2,B   1)    -54.7356         0.010000   
    118. D(B   8,B   3,B   2,B   0)      0.0000         0.010000   
    119. D(B   4,B   3,B   2,B   1)     70.5288         0.010000   
    120. D(B   8,B   3,B   2,B   4)   -125.2644         0.010000   
    121. D(B   5,B   4,B   3,B   8)      0.0000         0.010000   
    122. D(B   3,B   4,B   2,B   0)    -70.5288         0.010000   
    123. D(B   5,B   4,B   2,B   3)    125.2644         0.010000   
    124. D(B   9,B   4,B   2,B   1)    -54.7356         0.010000   
    125. D(B   5,B   4,B   2,B   1)      0.0000         0.010000   
    126. D(B   3,B   4,B   2,B   1)   -125.2644         0.010000   
    127. D(B   5,B   4,B   2,B   0)     54.7356         0.010000   
    128. D(B   2,B   4,B   3,B   8)     70.5288         0.010000   
    129. D(B   5,B   4,B   3,B  10)     54.7356         0.010000   
    130. D(B   2,B   4,B   3,B  10)    125.2644         0.010000   
    131. D(B   5,B   4,B   3,B   2)    -70.5288         0.010000   
    132. D(B   9,B   4,B   3,B   8)    -54.7356         0.010000   
    133. D(B   6,B   5,B   4,B   9)     70.5288         0.010000   
    134. D(B   6,B   5,B   4,B   3)      0.0000         0.010000   
    135. D(B   1,B   5,B   4,B   2)      0.0000         0.010000   
    136. D(B   4,B   5,B   1,B   6)   -125.2644         0.010000   
    137. D(B   9,B   5,B   1,B   0)      0.0000         0.010000   
    138. D(B   4,B   5,B   1,B   2)      0.0000         0.010000   
    139. D(B   4,B   5,B   1,B   0)    -54.7356         0.010000   
    140. D(B   6,B   5,B   1,B   2)    125.2644         0.010000   
    141. D(B   1,B   5,B   4,B   9)    125.2644         0.010000   
    142. D(B   6,B   5,B   4,B   2)    -54.7356         0.010000   
    143. D(B   6,B   5,B   1,B   0)     70.5288         0.010000   
    144. D(B   1,B   5,B   4,B   3)     54.7356         0.010000   
    145. D(B  11,B   6,B   5,B   1)   -125.2644         0.010000   
    146. D(B   7,B   6,B   5,B   1)    -70.5288         0.010000   
    147. D(B   7,B   6,B   5,B   4)      0.0000         0.010000   
    148. D(B   1,B   6,B   5,B   4)     70.5288         0.010000   
    149. D(B  11,B   6,B   1,B   0)    -54.7356         0.010000   
    150. D(B   1,B   6,B   5,B   9)    125.2644         0.010000   
    151. D(B   7,B   6,B   1,B   5)    125.2644         0.010000   
    152. D(B   7,B   6,B   1,B   2)     54.7356         0.010000   
    153. D(B   7,B   6,B   5,B   9)     54.7356         0.010000   
    154. D(B   5,B   6,B   1,B   0)   -125.2644         0.010000   
    155. D(B   7,B   6,B   1,B   0)      0.0000         0.010000   
    156. D(B   5,B   6,B   1,B   2)    -70.5288         0.010000   
    157. D(B   6,B   7,B   0,B   1)      0.0000         0.010000   
    158. D(B   8,B   7,B   0,B   2)     70.5288         0.010000   
    159. D(B   8,B   7,B   0,B   1)    125.2644         0.010000   
    160. D(B   8,B   7,B   6,B  11)     70.5288         0.010000   
    161. D(B   0,B   7,B   6,B   5)     54.7356         0.010000   
    162. D(B   0,B   7,B   6,B  11)    125.2644         0.010000   
    163. D(B   0,B   7,B   6,B   1)      0.0000         0.010000   
    164. D(B   8,B   7,B   6,B   1)    -54.7356         0.010000   
    165. D(B  11,B   7,B   0,B   1)     54.7356         0.010000   
    166. D(B   6,B   7,B   0,B   8)   -125.2644         0.010000   
    167. D(B   6,B   7,B   0,B   2)    -54.7356         0.010000   
    168. D(B   8,B   7,B   6,B   5)      0.0000         0.010000   
    169. D(B  10,B   8,B   7,B   0)   -125.2644         0.010000   
    170. D(B   3,B   8,B   7,B  11)     54.7356         0.010000   
    171. D(B   3,B   8,B   7,B   6)      0.0000         0.010000   
    172. D(B   0,B   8,B   7,B  11)    125.2644         0.010000   
    173. D(B   0,B   8,B   7,B   6)     70.5288         0.010000   
    174. D(B   0,B   8,B   3,B  10)   -125.2644         0.010000   
    175. D(B   0,B   8,B   3,B   4)    -54.7356         0.010000   
    176. D(B   0,B   8,B   3,B   2)      0.0000         0.010000   
    177. D(B   7,B   8,B   3,B  10)    -70.5288         0.010000   
    178. D(B   7,B   8,B   3,B   4)      0.0000         0.010000   
    179. D(B   7,B   8,B   3,B   2)     54.7356         0.010000   
    180. D(B  10,B   8,B   0,B   1)      0.0000         0.010000   
    181. D(B   3,B   8,B   0,B   7)    125.2644         0.010000   
    182. D(B   3,B   8,B   7,B   0)    -70.5288         0.010000   
    183. D(B   3,B   8,B   0,B   2)      0.0000         0.010000   
    184. D(B   3,B   8,B   0,B   1)     54.7356         0.010000   
    185. D(B   7,B   8,B   0,B   2)   -125.2644         0.010000   
    186. D(B   7,B   8,B   0,B   1)    -70.5288         0.010000   
    187. D(B  11,B   9,B   5,B   1)     54.7356         0.010000   
    188. D(B   4,B   9,B   5,B   6)   -125.2644         0.010000   
    189. D(B   4,B   9,B   5,B   1)    -70.5288         0.010000   
    190. D(B  10,B   9,B   5,B   4)     70.5288         0.010000   
    191. D(B  10,B   9,B   5,B   6)    -54.7356         0.010000   
    192. D(B  10,B   9,B   5,B   1)      0.0000         0.010000   
    193. D(B  11,B   9,B   4,B   3)     54.7356         0.010000   
    194. D(B  10,B   9,B   4,B   2)    -54.7356         0.010000   
    195. D(B  10,B   9,B   4,B   5)   -125.2644         0.010000   
    196. D(B  10,B   9,B   4,B   3)      0.0000         0.010000   
    197. D(B   5,B   9,B   4,B   2)     70.5288         0.010000   
    198. D(B   5,B   9,B   4,B   3)    125.2644         0.010000   
    199. D(B   3,B  10,B   9,B  11)   -125.2644         0.010000   
    200. D(B   3,B  10,B   9,B   5)    -54.7356         0.010000   
    201. D(B   8,B  10,B   9,B  11)    -70.5288         0.010000   
    202. D(B   8,B  10,B   9,B   4)     54.7356         0.010000   
    203. D(B   8,B  10,B   9,B   5)      0.0000         0.010000   
    204. D(B  11,B  10,B   8,B   7)      0.0000         0.010000   
    205. D(B   9,B  10,B   8,B   3)    -70.5288         0.010000   
    206. D(B   9,B  10,B   8,B   0)      0.0000         0.010000   
    207. D(B   9,B  10,B   8,B   7)     54.7356         0.010000   
    208. D(B   3,B  10,B   8,B   0)     70.5288         0.010000   
    209. D(B   3,B  10,B   8,B   7)    125.2644         0.010000   
    210. D(B  11,B  10,B   3,B   8)     70.5288         0.010000   
    211. D(B   9,B  10,B   3,B   4)      0.0000         0.010000   
    212. D(B   9,B  10,B   3,B   2)     54.7356         0.010000   
    213. D(B   9,B  10,B   3,B   8)    125.2644         0.010000   
    214. D(B   3,B  10,B   9,B   4)      0.0000         0.010000   
    215. D(B   8,B  10,B   3,B   4)   -125.2644         0.010000   
    216. D(B   8,B  10,B   3,B   2)    -70.5288         0.010000   
    217. D(B  10,B  11,B   6,B   5)     54.7356         0.010000   
    218. D(B   9,B  11,B   6,B   1)    -54.7356         0.010000   
    219. D(B   9,B  11,B   6,B   7)   -125.2644         0.010000   
    220. D(B   9,B  11,B   6,B   5)      0.0000         0.010000   
    221. D(B   7,B  11,B   6,B   1)     70.5288         0.010000   
    222. D(B   9,B  11,B   7,B   0)      0.0000         0.010000   
    223. D(B   7,B  11,B   6,B   5)    125.2644         0.010000   
    224. D(B   6,B  11,B  10,B   8)     54.7356         0.010000   
    225. D(B   9,B  11,B  10,B   8)    125.2644         0.010000   
    226. D(B   7,B  11,B  10,B   9)   -125.2644         0.010000   
    227. D(B   7,B  11,B  10,B   3)    -54.7356         0.010000   
    228. D(B   6,B  11,B   9,B   5)      0.0000         0.010000   
    229. D(B  10,B  11,B   9,B   4)    -70.5288         0.010000   
    230. D(B  10,B  11,B   9,B   5)   -125.2644         0.010000   
    231. D(B   7,B  11,B   9,B   4)      0.0000         0.010000   
    232. D(B   7,B  11,B   9,B  10)     70.5288         0.010000   
    233. D(B   7,B  11,B   9,B   5)    -54.7356         0.010000   
    234. D(B   7,B  11,B  10,B   8)      0.0000         0.010000   
    235. D(B  10,B  11,B   7,B   6)    125.2644         0.010000   
    236. D(B  10,B  11,B   7,B   8)      0.0000         0.010000   
    237. D(B  10,B  11,B   7,B   0)     54.7356         0.010000   
    238. D(B   9,B  11,B  10,B   3)     70.5288         0.010000   
    239. D(B   9,B  11,B   7,B   6)     70.5288         0.010000   
    240. D(B   9,B  11,B   7,B   8)    -54.7356         0.010000   
    -----------------------------------------------------------------

Number of atoms                         .... 12
Number of degrees of freedom            .... 240


         *************************************************************
         *                GEOMETRY OPTIMIZATION CYCLE   1            *
         *************************************************************
---------------------------------
CARTESIAN COORDINATES (ANGSTROEM)
---------------------------------
  B      0.000000   -2.121320   -2.121320
  B     -2.121320    0.000000   -2.121320
  B     -2.121320   -2.121320    0.000000
  B      0.000000   -2.121320    2.121320
  B     -2.121320    0.000000    2.121320
  B     -2.121320    2.121320    0.000000
  B      0.000000    2.121320   -2.121320
  B      2.121320    0.000000   -2.121320
  B      2.121320   -2.121320    0.000000
  B      0.000000    2.121320    2.121320
  B      2.121320    0.000000    2.121320
  B      2.121320    2.121320    0.000000

----------------------------
CARTESIAN COORDINATES (A.U.)
----------------------------
  NO LB      ZA    FRAG     MASS         X           Y           Z
   0 B     5.0000    0    10.810    0.000000   -4.008714   -4.008714
   1 B     5.0000    0    10.810   -4.008714    0.000000   -4.008714
   2 B     5.0000    0    10.810   -4.008714   -4.008714    0.000000
   3 B     5.0000    0    10.810    0.000000   -4.008714    4.008714
   4 B     5.0000    0    10.810   -4.008714    0.000000    4.008714
   5 B     5.0000    0    10.810   -4.008714    4.008714    0.000000
   6 B     5.0000    0    10.810    0.000000    4.008714   -4.008714
   7 B     5.0000    0    10.810    4.008714    0.000000   -4.008714
   8 B     5.0000    0    10.810    4.008714   -4.008714    0.000000
   9 B     5.0000    0    10.810    0.000000    4.008714    4.008714
  10 B     5.0000    0    10.810    4.008714    0.000000    4.008714
  11 B     5.0000    0    10.810    4.008714    4.008714    0.000000

--------------------------------
INTERNAL COORDINATES (ANGSTROEM)
--------------------------------
 B      0   0   0     0.000000000000     0.00000000     0.00000000
 B      1   0   0     2.999999994966     0.00000000     0.00000000
 B      1   2   0     2.999999994966    60.00000000     0.00000000
 B      3   1   2     2.999999994966    90.00000000   234.73561032
 B      3   1   2     2.999999994966   120.00000000   289.47122063
 B      2   1   3     2.999999994966   120.00000000    70.52877937
 B      2   1   3     2.999999994966    90.00000000   125.26438968
 B      1   2   3     2.999999994966    90.00000000   234.73561032
 B      1   2   3     2.999999994966   120.00000000   289.47122063
 B      5   3   1     2.999999994966   120.00000000     0.00000000
 B      4   3   1     2.999999994966   120.00000000    54.73561032
 B      7   2   1     2.999999994966   120.00000000   305.26438968

---------------------------
INTERNAL COORDINATES (A.U.)
---------------------------
 B      0   0   0     0.000000000000     0.00000000     0.00000000
 B      1   0   0     5.669178392251     0.00000000     0.00000000
 B      1   2   0     5.669178392251    60.00000000     0.00000000
 B      3   1   2     5.669178392251    90.00000000   234.73561032
 B      3   1   2     5.669178392251   120.00000000   289.47122063
 B      2   1   3     5.669178392251   120.00000000    70.52877937
 B      2   1   3     5.669178392251    90.00000000   125.26438968
 B      1   2   3     5.669178392251    90.00000000   234.73561032
 B      1   2   3     5.669178392251   120.00000000   289.47122063
 B      5   3   1     5.669178392251   120.00000000     0.00000000
 B      4   3   1     5.669178392251   120.00000000    54.73561032
 B      7   2   1     5.669178392251   120.00000000   305.26438968

---------------------
BASIS SET INFORMATION
---------------------
There are 1 groups of distinct atoms

 Group   1 Type B   : 7s4p1d contracted to 3s2p1d pattern {511/31/1}

Atom   0B    basis set group =>   1
Atom   1B    basis set group =>   1
Atom   2B    basis set group =>   1
Atom   3B    basis set group =>   1
Atom   4B    basis set group =>   1
Atom   5B    basis set group =>   1
Atom   6B    basis set group =>   1
Atom   7B    basis set group =>   1
Atom   8B    basis set group =>   1
Atom   9B    basis set group =>   1
Atom  10B    basis set group =>   1
Atom  11B    basis set group =>   1
---------------------------------
AUXILIARY/J BASIS SET INFORMATION
---------------------------------
There are 1 groups of distinct atoms

 Group   1 Type B   : 12s5p4d2f1g contracted to 6s4p3d1f1g pattern {711111/2111/211/2/1}

Atom   0B    basis set group =>   1
Atom   1B    basis set group =>   1
Atom   2B    basis set group =>   1
Atom   3B    basis set group =>   1
Atom   4B    basis set group =>   1
Atom   5B    basis set group =>   1
Atom   6B    basis set group =>   1
Atom   7B    basis set group =>   1
Atom   8B    basis set group =>   1
Atom   9B    basis set group =>   1
Atom  10B    basis set group =>   1
Atom  11B    basis set group =>   1


           ************************************************************
           *        Program running with 8 parallel MPI-processes     *
           *              working on a common directory               *
           ************************************************************
------------------------------------------------------------------------------
                             ORCA STARTUP CALCULATIONS
                           -- RI-GTO INTEGRALS CHOSEN --
------------------------------------------------------------------------------
------------------------------------------------------------------------------
                   ___                                                        
                  /   \      - P O W E R E D   B Y -                         
                 /     \                                                     
                 |  |  |   _    _      __       _____    __    __             
                 |  |  |  | |  | |    /  \     |  _  \  |  |  /  |          
                  \  \/   | |  | |   /    \    | | | |  |  | /  /          
                 / \  \   | |__| |  /  /\  \   | |_| |  |  |/  /          
                |  |  |   |  __  | /  /__\  \  |    /   |      \           
                |  |  |   | |  | | |   __   |  |    \   |  |\   \          
                \     /   | |  | | |  |  |  |  | |\  \  |  | \   \       
                 \___/    |_|  |_| |__|  |__|  |_| \__\ |__|  \__/        
                                                                              
                      - O R C A' S   B I G   F R I E N D -                    
                                      &                                       
                       - I N T E G R A L  F E E D E R -                       
                                                                              
 v1 FN, 2020, v2 2021, v3 2022-2024                                           
------------------------------------------------------------------------------


----------------------
SHARK INTEGRAL PACKAGE
----------------------

Number of atoms                             ...     12
Number of basis functions                   ...    168
Number of shells                            ...     72
Maximum angular momentum                    ...      2
Integral batch strategy                     ... SHARK/LIBINT Hybrid
RI-J (if used) integral strategy            ... SPLIT-RIJ (Revised 2003 algorithm where possible)
Printlevel                                  ...      1
Contraction scheme used                     ... SEGMENTED contraction
Prescreening option                         ... SCHWARTZ
   Thresh                                   ... 2.500e-11
   Tcut                                     ... 2.500e-12
   Tpresel                                  ... 2.500e-12 
Coulomb Range Separation                    ... NOT USED
Exchange Range Separation                   ... NOT USED
Multipole approximations                    ... NOT USED
Finite Nucleus Model                        ... NOT USED
CABS basis                                  ... NOT available
Auxiliary Coulomb fitting basis             ... AVAILABLE
   # of basis functions in Aux-J            ...    588
   # of shells in Aux-J                     ...    180
   Maximum angular momentum in Aux-J        ...      4
Auxiliary J/K fitting basis                 ... NOT available
Auxiliary Correlation fitting basis         ... NOT available
Auxiliary 'external' fitting basis          ... NOT available

Checking pre-screening integrals            ... done (  0.0 sec) Dimension = 72
   => SHARK Basis and OBASIS are compatible. Storing Pre-screening
Shell pair information
Shell pair cut-off parameter TPreSel        ...   2.5e-12
Total number of shell pairs                 ...      2628
Shell pairs after pre-screening             ...      2430
Total number of primitive shell pairs       ...     10596
Primitive shell pairs kept                  ...      6444
          la=0 lb=0:    588 shell pairs
          la=1 lb=0:    804 shell pairs
          la=1 lb=1:    300 shell pairs
          la=2 lb=0:    372 shell pairs
          la=2 lb=1:    288 shell pairs
          la=2 lb=2:     78 shell pairs

Checking whether 4 symmetric matrices of dimension 168 fit in memory
:Max Core in MB      =   2500.00
 MB in use           =      6.52
 MB left             =   2493.48
 MB needed           =      0.43
 Data fit in memory  = YES
Calculating RI/J V-Matrix + Cholesky decomp.... done (  0.0 sec)
Calculating Nuclear repulsion               ... done (  0.0 sec) ENN=    217.587472208652 Eh

Diagonalization of the overlap matrix:
Smallest eigenvalue                        ... 1.723e-02
Time for diagonalization                   ...    0.003 sec
Threshold for overlap eigenvalues          ... 1.000e-07
Number of eigenvalues below threshold      ... 0
Time for construction of square roots      ...    0.002 sec
Total time needed                          ...    0.008 sec

-------------------
DFT GRID GENERATION
-------------------

General Integration Accuracy     IntAcc      ... 4.388
Radial Grid Type                 RadialGrid  ... OptM3 with GC (2021)
Angular Grid (max. ang.)         AngularGrid ... 4 (Lebedev-302)
Angular grid pruning method      GridPruning ... 4 (adaptive)
Weight generation scheme         WeightScheme... mBecke (2022)
Basis function cutoff            BFCut       ... 1.0000e-11
Integration weight cutoff        WCut        ... 1.0000e-14
Partially contracted basis set               ... off
Rotationally invariant grid construction     ... off
Angular grids for H and He will be reduced by one unit

Total number of grid points                  ...    72900
Total number of batches                      ...     1145
Average number of points per batch           ...       63
Average number of grid points per atom       ...     6075
Grids setup in   0.7 sec
Initializing property integral containers    ... done (  0.0 sec)

SHARK setup successfully completed in   1.0 seconds

Maximum memory used throughout the entire STARTUP-calculation: 19.7 MB


           ************************************************************
           *        Program running with 8 parallel MPI-processes     *
           *              working on a common directory               *
           ************************************************************
-------------------------------------------------------------------------------
                                 ORCA GUESS
                   Start orbitals & Density for SCF / CASSCF
-------------------------------------------------------------------------------

------------
SCF SETTINGS
------------
Hamiltonian:
 Density Functional     Method          .... DFT(GTOs)
 Exchange Functional    Exchange        .... B88
   X-Alpha parameter    XAlpha          ....  0.666667
   Becke's b parameter  XBeta           ....  0.004200
 Correlation Functional Correlation     .... P86
 LDA part of GGA corr.  LDAOpt          .... PW91-LDA
 Gradients option       PostSCFGGA      .... off
   NL short-range parameter             ....  4.400000
 RI-approximation to the Coulomb term is turned on
   Number of AuxJ basis functions       .... 588


General Settings:
 Integral files         IntName         .... cuboctahedron_nn3.00
 Hartree-Fock type      HFTyp           .... RHF
 Total Charge           Charge          ....    0
 Multiplicity           Mult            ....    1
 Number of Electrons    NEL             ....   60
 Basis Dimension        Dim             ....  168
 Nuclear Repulsion      ENuc            ....    217.5874722087 Eh

Convergence Acceleration:
 AO-DIIS                CNVDIIS         .... on
   Start iteration      DIISMaxIt       ....     0
   Startup error        DIISStart       ....  0.200000
   # of expansion vecs  DIISMaxEq       ....     5
   Bias factor          DIISBfac        ....   1.050
   Max. coefficient     DIISMaxC        ....  10.000
 MO-DIIS                CNVKDIIS        .... off
 Trust-Rad. Augm. Hess. CNVTRAH         .... auto
   Auto Start mean grad. ratio tolernc. ....  1.125000
   Auto Start start iteration           ....    50
   Auto Start num. interpolation iter.  ....    10
   Max. Number of Micro iterations      ....    24
   Max. Number of Macro iterations      .... Maxiter - #DIIS iter
   Number of Davidson start vectors     ....     2
   Converg. threshold    (grad. norm)   ....   1.000e-05
   Grad. Scal. Fac. for Micro threshold ....   0.100
   Minimum threshold for Micro iter.    ....   1.000e-02
   NR start threshold (gradient norm)   ....   1.000e-04
   Initial trust radius                 ....   0.400
   Minimum AH scaling param. (alpha)    ....   1.000
   Maximum AH scaling param. (alpha)    .... 1000.000
   Quad. conv. algorithm                .... NR
   White noise on init. David. guess    .... on
   Maximum white noise                  ....   0.010
   Pseudo random numbers                .... off
   Inactive MOs                         .... canonical
   Orbital update algorithm             .... Taylor
   Preconditioner                       .... Diag
   Full preconditioner red. dimension   ....   250
 SOSCF                 CNVSOSCF           .... on
   Start iteration     SOSCFMaxIt         ....   150
   Startup grad/error  SOSCFStart         ....  0.001000
   Hessian update      SOSCFHessUp        .... L-BFGS
   Autom. constraints  SOSCFAutoConstrain .... off
 Level Shifting         CNVShift        .... on
   Level shift para.    LevelShift      ....    0.2500
   Turn off err/grad.   ShiftErr        ....    0.0000
 Zerner damping         CNVZerner       .... off
 Static damping         CNVDamp         .... on
   Fraction old density DampFac         ....    0.8500
   Max. Damping (<1)    DampMax         ....    0.9800
   Min. Damping (>=0)   DampMin         ....    0.0000
   Turn off err/grad.   DampErr         ....    0.0300

SCF Procedure:
 Maximum # iterations   MaxIter         ....   125
 SCF integral mode      SCFMode         .... Direct
   Integral package                     .... SHARK and LIBINT hybrid scheme
 Reset frequency        DirectResetFreq ....    20
 Integral Threshold     Thresh          ....  2.500e-11 Eh
 Primitive CutOff       TCut            ....  2.500e-12 Eh

Convergence Tolerance:
 Convergence Check Mode ConvCheckMode   .... Total+1el-Energy
 Convergence forced     ConvForced      .... 0
 Energy Change          TolE            ....  1.000e-08 Eh
 1-El. energy change                    ....  1.000e-05 Eh
 Orbital Gradient       TolG            ....  1.000e-05
 Orbital Rotation angle TolX            ....  1.000e-05
 DIIS Error             TolErr          ....  5.000e-07

------------------------------
INITIAL GUESS: MODEL POTENTIAL
------------------------------
Loading Hartree-Fock densities                     ... done
Calculating cut-offs                               ... done
Initializing the effective Hamiltonian             ... done
Setting up the integral package (SHARK)            ... done
Starting the Coulomb interaction                   ... done (   0.1 sec)
Making the grid                                    ... done (   0.4 sec)
Mapping shells                                     ... done
Starting the XC term evaluation                    ... done (   0.0 sec)
  promolecular density results
     # of electrons  =     60.001634460
     EX              =    -44.279457425
     EC              =     -1.685065408
     EX+EC           =    -45.964522833
Transforming the Hamiltonian                       ... done (   0.0 sec)
Diagonalizing the Hamiltonian                      ... done (   0.0 sec)
Back transforming the eigenvectors                 ... done (   0.0 sec)
Now organizing SCF variables                       ... done
                      ------------------
                      INITIAL GUESS DONE (   0.6 sec)
                      ------------------
             **** ENERGY FILE WAS UPDATED (cuboctahedron_nn3.00.en.tmp) ****
Finished Guess after   1.1 sec
Maximum memory used throughout the entire GUESS-calculation: 9.3 MB


           ************************************************************
           *        Program running with 8 parallel MPI-processes     *
           *              working on a common directory               *
           ************************************************************

-------------------------------------------------------------------------------------------
                                      ORCA LEAN-SCF
                              memory conserving SCF solver
-------------------------------------------------------------------------------------------

----------------------------------------D-I-I-S--------------------------------------------
Iteration    Energy (Eh)           Delta-E    RMSDP     MaxDP     DIISErr   Damp  Time(sec)
-------------------------------------------------------------------------------------------
               ***  Starting incremental Fock matrix formation  ***
    1    -295.9159584593023169     0.00e+00  1.40e-03  1.92e-02  1.86e-02  0.850   0.3
Warning: op=0 Small HOMO/LUMO gap (  -0.023) - skipping pre-diagonalization
         Will do a full diagonalization
    2    -295.9203958810065274    -4.44e-03  1.86e-03  2.08e-02  1.42e-02  0.850   0.2
                               ***Turning on AO-DIIS***
    3    -295.9240358093028931    -3.64e-03  1.27e-03  1.03e-02  7.83e-03  0.850   0.3
    4    -295.9253922899679878    -1.36e-03  6.44e-03  4.31e-02  4.54e-03  0.000   0.3
    5    -295.9206048899221173     4.79e-03  1.13e-03  8.09e-03  1.55e-02  0.000   0.3
    6    -295.9258042813713132    -5.20e-03  9.00e-04  6.35e-03  1.09e-02  0.000   0.2
    7    -295.9285686284477492    -2.76e-03  6.69e-04  4.85e-03  7.48e-03  0.000   0.2
    8    -295.9299836316027381    -1.42e-03  5.04e-04  3.28e-03  4.87e-03  0.000   0.2
    9    -295.9306339601144487    -6.50e-04  4.02e-04  3.12e-03  3.35e-03  0.000   0.2
   10    -295.9309431417179326    -3.09e-04  3.21e-04  2.16e-03  2.04e-03  0.000   0.2
   11    -295.9310923248426093    -1.49e-04  2.41e-04  1.29e-03  1.48e-03  0.000   0.2
                              *** Initializing SOSCF ***
---------------------------------------S-O-S-C-F--------------------------------------
Iteration    Energy (Eh)           Delta-E    RMSDP     MaxDP     MaxGrad    Time(sec)
--------------------------------------------------------------------------------------
   12    -295.9311718214763118    -7.95e-05  1.90e-04  6.81e-04  8.52e-04     0.2
               *** Restarting incremental Fock matrix formation ***
   13    -295.9312197302940035    -4.79e-05  5.17e-04  3.27e-03  7.95e-04     0.2
   14    -295.9312517952551502    -3.21e-05  6.60e-04  2.86e-03  1.53e-03     0.3
   15    -295.9313923208750907    -1.41e-04  3.95e-03  1.46e-02  1.25e-03     0.2
   16    -295.9317984052852921    -4.06e-04  3.02e-03  1.27e-02  1.71e-03     0.2
   17    -295.9319669357092266    -1.69e-04  2.86e-03  1.18e-02  2.34e-03     0.4
   18    -295.9322829100977401    -3.16e-04  2.41e-03  1.19e-02  1.25e-03     0.3
   19    -295.9321264026452241     1.57e-04  1.05e-03  6.78e-03  4.05e-03     0.3
   20    -295.9323516357595167    -2.25e-04  8.71e-04  8.37e-03  1.37e-03     0.2
   21    -295.9324126589232833    -6.10e-05  6.48e-04  3.30e-03  9.54e-04     0.2
   22    -295.9324387989658476    -2.61e-05  6.39e-04  5.20e-03  1.32e-03     0.2
   23    -295.9324202327431408     1.86e-05  8.21e-04  4.13e-03  1.12e-03     0.2
   24    -295.9324926899080879    -7.25e-05  6.70e-04  4.01e-03  5.98e-04     0.3
   25    -295.9324580675406082     3.46e-05  5.89e-04  3.42e-03  1.64e-03     0.3
   26    -295.9324774824437441    -1.94e-05  1.05e-03  4.90e-03  9.65e-04     0.3
   27    -295.9325221959114174    -4.47e-05  3.34e-04  1.56e-03  6.00e-04     0.3
   28    -295.9325482685329121    -2.61e-05  1.52e-04  6.74e-04  1.66e-04     0.2
   29    -295.9325525349755139    -4.27e-06  2.95e-04  8.47e-04  1.46e-04     0.3
   30    -295.9325590643424562    -6.53e-06  3.44e-04  1.22e-03  1.57e-04     0.3
   31    -295.9325636030046667    -4.54e-06  1.77e-04  6.98e-04  9.14e-05     0.2
   32    -295.9325643624193276    -7.59e-07  7.68e-05  4.33e-04  1.35e-04     0.2
               *** Restarting incremental Fock matrix formation ***
   33    -295.9325659732440386    -1.61e-06  1.39e-04  5.77e-04  8.28e-05     0.3
   34    -295.9325677306161992    -1.76e-06  2.62e-04  9.61e-04  5.52e-05     0.2
   35    -295.9325695997237631    -1.87e-06  1.66e-04  6.46e-04  6.60e-05     0.2
   36    -295.9325701039500132    -5.04e-07  6.73e-05  3.54e-04  6.36e-05     0.3
   37    -295.9325704570102857    -3.53e-07  4.27e-05  1.73e-04  3.96e-05     0.3
   38    -295.9325706476176379    -1.91e-07  4.80e-05  1.60e-04  2.06e-05     0.3
   39    -295.9325708101206942    -1.63e-07  2.84e-05  1.22e-04  1.73e-05     0.2
   40    -295.9325708439134246    -3.38e-08  3.51e-05  1.39e-04  1.42e-05     0.3
   41    -295.9325708848708132    -4.10e-08  2.05e-05  5.57e-05  1.20e-05     0.2
   42    -295.9325709233725661    -3.85e-08  2.59e-05  6.79e-05  8.01e-06     0.3
   43    -295.9325709550075203    -3.16e-08  1.12e-05  2.62e-05  5.81e-06     0.3
   44    -295.9325709636211172    -8.61e-09  1.00e-05  2.58e-05  4.73e-06     0.2
                 **** Energy Check signals convergence ****

               *****************************************************
               *                     SUCCESS                       *
               *           SCF CONVERGED AFTER  44 CYCLES          *
               *****************************************************

             **** ENERGY FILE WAS UPDATED (cuboctahedron_nn3.00.en.tmp) ****

----------------
TOTAL SCF ENERGY
----------------

Total Energy       :       -295.93257096976464 Eh           -8052.73465 eV

Components:
Nuclear Repulsion  :        217.58747220865206 Eh            5920.85613 eV
Electronic Energy  :       -513.52004317841670 Eh          -13973.59078 eV
One Electron Energy:       -822.78383387658710 Eh          -22389.08636 eV
Two Electron Energy:        309.26379069817045 Eh            8415.49558 eV

Virial components:
Potential Energy   :       -587.68371263551944 Eh          -15991.68682 eV
Kinetic Energy     :        291.75114166575480 Eh            7938.95217 eV
Virial Ratio       :          2.01433217803411

DFT components:
N(Alpha)           :       29.999961351174 electrons
N(Beta)            :       29.999961351174 electrons
N(Total)           :       59.999922702349 electrons
E(X)               :      -44.373564275495 Eh       
E(C)               :       -1.717615899674 Eh       
E(XC)              :      -46.091180175170 Eh       

---------------
SCF CONVERGENCE
---------------

  Last Energy change         ...    8.6136e-09  Tolerance :   1.0000e-08
  Last MAX-Density change    ...    2.5805e-05  Tolerance :   1.0000e-07
  Last RMS-Density change    ...    1.0027e-05  Tolerance :   5.0000e-09
  Last DIIS Error            ...    8.5210e-04  Tolerance :   5.0000e-07
  Last Orbital Gradient      ...    4.7254e-06  Tolerance :   1.0000e-05
  Last Orbital Rotation      ...    2.3239e-04  Tolerance :   1.0000e-05


----------------
ORBITAL ENERGIES
----------------

  NO   OCC          E(Eh)            E(eV) 
   0   2.0000      -6.669503      -181.4864 
   1   2.0000      -6.669443      -181.4848 
   2   2.0000      -6.669442      -181.4848 
   3   2.0000      -6.669440      -181.4847 
   4   2.0000      -6.669439      -181.4847 
   5   2.0000      -6.669410      -181.4839 
   6   2.0000      -6.669372      -181.4828 
   7   2.0000      -6.669340      -181.4820 
   8   2.0000      -6.668519      -181.4596 
   9   2.0000      -6.668509      -181.4594 
  10   2.0000      -6.668504      -181.4592 
  11   2.0000      -6.668444      -181.4576 
  12   2.0000      -0.423221       -11.5164 
  13   2.0000      -0.393810       -10.7161 
  14   2.0000      -0.393807       -10.7160 
  15   2.0000      -0.392810       -10.6889 
  16   2.0000      -0.356805        -9.7092 
  17   2.0000      -0.356206        -9.6929 
  18   2.0000      -0.356206        -9.6928 
  19   2.0000      -0.327324        -8.9069 
  20   2.0000      -0.326595        -8.8871 
  21   2.0000      -0.316219        -8.6048 
  22   2.0000      -0.315726        -8.5914 
  23   2.0000      -0.315723        -8.5913 
  24   2.0000      -0.219142        -5.9632 
  25   2.0000      -0.199853        -5.4383 
  26   2.0000      -0.188008        -5.1159 
  27   2.0000      -0.188005        -5.1159 
  28   2.0000      -0.187597        -5.1048 
  29   2.0000      -0.175998        -4.7891 
  30   0.0000      -0.177192        -4.8216 
  31   0.0000      -0.177190        -4.8216 
  32   0.0000      -0.174195        -4.7401 
  33   0.0000      -0.173726        -4.7273 
  34   0.0000      -0.173250        -4.7144 
  35   0.0000      -0.173192        -4.7128 
  36   0.0000      -0.173190        -4.7127 
  37   0.0000      -0.146708        -3.9921 
  38   0.0000      -0.146207        -3.9785 
  39   0.0000      -0.146206        -3.9785 
  40   0.0000      -0.116381        -3.1669 
*Only the first 10 virtual orbitals were printed.

                    ********************************
                    * MULLIKEN POPULATION ANALYSIS *
                    ********************************

-----------------------
MULLIKEN ATOMIC CHARGES
-----------------------
   0 B :    0.018241
   1 B :   -0.009122
   2 B :   -0.009103
   3 B :    0.018214
   4 B :   -0.009101
   5 B :   -0.009116
   6 B :    0.018220
   7 B :   -0.009119
   8 B :   -0.009125
   9 B :    0.018215
  10 B :   -0.009100
  11 B :   -0.009105
Sum of atomic charges:   -0.0000000

--------------------------------
MULLIKEN REDUCED ORBITAL CHARGES
--------------------------------
  0 B s       :     3.910242  s :     3.910242
      pz      :     0.369823  p :     1.068282
      px      :     0.328688
      py      :     0.369771
      dz2     :     0.000707  d :     0.003235
      dxz     :     0.000813
      dyz     :     0.000160
      dx2y2   :     0.000743
      dxy     :     0.000813

  1 B s       :     3.880005  s :     3.880005
      pz      :     0.314537  p :     1.126163
      px      :     0.308024
      py      :     0.503603
      dz2     :     0.000543  d :     0.002954
      dxz     :     0.000132
      dyz     :     0.001033
      dx2y2   :     0.000448
      dxy     :     0.000799

  2 B s       :     3.880002  s :     3.880002
      pz      :     0.503585  p :     1.126147
      px      :     0.308016
      py      :     0.314545
      dz2     :     0.000393  d :     0.002954
      dxz     :     0.000799
      dyz     :     0.001033
      dx2y2   :     0.000598
      dxy     :     0.000132

  3 B s       :     3.910250  s :     3.910250
      pz      :     0.369777  p :     1.068300
      px      :     0.328685
      py      :     0.369838
      dz2     :     0.000707  d :     0.003235
      dxz     :     0.000813
      dyz     :     0.000160
      dx2y2   :     0.000743
      dxy     :     0.000813

  4 B s       :     3.880003  s :     3.880003
      pz      :     0.314535  p :     1.126144
      px      :     0.308012
      py      :     0.503597
      dz2     :     0.000543  d :     0.002954
      dxz     :     0.000132
      dyz     :     0.001033
      dx2y2   :     0.000448
      dxy     :     0.000799

  5 B s       :     3.880002  s :     3.880002
      pz      :     0.503638  p :     1.126160
      px      :     0.307999
      py      :     0.314523
      dz2     :     0.000393  d :     0.002954
      dxz     :     0.000799
      dyz     :     0.001033
      dx2y2   :     0.000598
      dxy     :     0.000132

  6 B s       :     3.910249  s :     3.910249
      pz      :     0.369777  p :     1.068295
      px      :     0.328682
      py      :     0.369836
      dz2     :     0.000707  d :     0.003235
      dxz     :     0.000813
      dyz     :     0.000160
      dx2y2   :     0.000743
      dxy     :     0.000813

  7 B s       :     3.880005  s :     3.880005
      pz      :     0.314543  p :     1.126160
      px      :     0.308015
      py      :     0.503602
      dz2     :     0.000543  d :     0.002954
      dxz     :     0.000132
      dyz     :     0.001033
      dx2y2   :     0.000448
      dxy     :     0.000799

  8 B s       :     3.880002  s :     3.880002
      pz      :     0.503641  p :     1.126168
      px      :     0.308002
      py      :     0.314525
      dz2     :     0.000393  d :     0.002954
      dxz     :     0.000799
      dyz     :     0.001033
      dx2y2   :     0.000598
      dxy     :     0.000132

  9 B s       :     3.910243  s :     3.910243
      pz      :     0.369829  p :     1.068307
      px      :     0.328698
      py      :     0.369780
      dz2     :     0.000707  d :     0.003235
      dxz     :     0.000813
      dyz     :     0.000160
      dx2y2   :     0.000743
      dxy     :     0.000813

 10 B s       :     3.880003  s :     3.880003
      pz      :     0.314529  p :     1.126142
      px      :     0.308019
      py      :     0.503594
      dz2     :     0.000543  d :     0.002954
      dxz     :     0.000132
      dyz     :     0.001033
      dx2y2   :     0.000448
      dxy     :     0.000799

 11 B s       :     3.880003  s :     3.880003
      pz      :     0.503587  p :     1.126148
      px      :     0.308016
      py      :     0.314544
      dz2     :     0.000393  d :     0.002954
      dxz     :     0.000799
      dyz     :     0.001033
      dx2y2   :     0.000598
      dxy     :     0.000132



                     *******************************
                     * LOEWDIN POPULATION ANALYSIS *
                     *******************************

----------------------
LOEWDIN ATOMIC CHARGES
----------------------
   0 B :    0.003100
   1 B :   -0.001547
   2 B :   -0.001530
   3 B :    0.003062
   4 B :   -0.001533
   5 B :   -0.001540
   6 B :    0.003068
   7 B :   -0.001550
   8 B :   -0.001549
   9 B :    0.003074
  10 B :   -0.001524
  11 B :   -0.001532

-------------------------------
LOEWDIN REDUCED ORBITAL CHARGES
-------------------------------
  0 B s       :     3.806354  s :     3.806354
      pz      :     0.401826  p :     1.185930
      px      :     0.382330
      py      :     0.401773
      dz2     :     0.001016  d :     0.004616
      dxz     :     0.001212
      dyz     :     0.000173
      dx2y2   :     0.001004
      dxy     :     0.001212

  1 B s       :     3.766142  s :     3.766142
      pz      :     0.344477  p :     1.231087
      px      :     0.338433
      py      :     0.548177
      dz2     :     0.000817  d :     0.004318
      dxz     :     0.000148
      dyz     :     0.001545
      dx2y2   :     0.000589
      dxy     :     0.001218

  2 B s       :     3.766140  s :     3.766140
      pz      :     0.548161  p :     1.231072
      px      :     0.338426
      py      :     0.344485
      dz2     :     0.000468  d :     0.004318
      dxz     :     0.001218
      dyz     :     0.001545
      dx2y2   :     0.000939
      dxy     :     0.000148

  3 B s       :     3.806366  s :     3.806366
      pz      :     0.401783  p :     1.185955
      px      :     0.382330
      py      :     0.401843
      dz2     :     0.001017  d :     0.004616
      dxz     :     0.001212
      dyz     :     0.000173
      dx2y2   :     0.001004
      dxy     :     0.001212

  4 B s       :     3.766142  s :     3.766142
      pz      :     0.344477  p :     1.231073
      px      :     0.338423
      py      :     0.548173
      dz2     :     0.000817  d :     0.004318
      dxz     :     0.000148
      dyz     :     0.001545
      dx2y2   :     0.000589
      dxy     :     0.001218

  5 B s       :     3.766139  s :     3.766139
      pz      :     0.548211  p :     1.231083
      px      :     0.338409
      py      :     0.344463
      dz2     :     0.000468  d :     0.004318
      dxz     :     0.001218
      dyz     :     0.001545
      dx2y2   :     0.000939
      dxy     :     0.000148

  6 B s       :     3.806365  s :     3.806365
      pz      :     0.401783  p :     1.185951
      px      :     0.382327
      py      :     0.401841
      dz2     :     0.001017  d :     0.004616
      dxz     :     0.001212
      dyz     :     0.000173
      dx2y2   :     0.001004
      dxy     :     0.001212

  7 B s       :     3.766145  s :     3.766145
      pz      :     0.344485  p :     1.231088
      px      :     0.338426
      py      :     0.548177
      dz2     :     0.000817  d :     0.004318
      dxz     :     0.000148
      dyz     :     0.001545
      dx2y2   :     0.000589
      dxy     :     0.001218

  8 B s       :     3.766140  s :     3.766140
      pz      :     0.548214  p :     1.231091
      px      :     0.338412
      py      :     0.344466
      dz2     :     0.000468  d :     0.004318
      dxz     :     0.001218
      dyz     :     0.001545
      dx2y2   :     0.000939
      dxy     :     0.000148

  9 B s       :     3.806356  s :     3.806356
      pz      :     0.401832  p :     1.185953
      px      :     0.382340
      py      :     0.401782
      dz2     :     0.001016  d :     0.004616
      dxz     :     0.001212
      dyz     :     0.000173
      dx2y2   :     0.001004
      dxy     :     0.001212

 10 B s       :     3.766139  s :     3.766139
      pz      :     0.344470  p :     1.231067
      px      :     0.338428
      py      :     0.548169
      dz2     :     0.000817  d :     0.004318
      dxz     :     0.000148
      dyz     :     0.001545
      dx2y2   :     0.000589
      dxy     :     0.001218

 11 B s       :     3.766140  s :     3.766140
      pz      :     0.548163  p :     1.231074
      px      :     0.338426
      py      :     0.344485
      dz2     :     0.000468  d :     0.004318
      dxz     :     0.001218
      dyz     :     0.001545
      dx2y2   :     0.000939
      dxy     :     0.000148



                      *****************************
                      * MAYER POPULATION ANALYSIS *
                      *****************************

  NA   - Mulliken gross atomic population
  ZA   - Total nuclear charge
  QA   - Mulliken gross atomic charge
  VA   - Mayer's total valence
  BVA  - Mayer's bonded valence
  FA   - Mayer's free valence

  ATOM       NA         ZA         QA         VA         BVA        FA
  0 B      4.9818     5.0000     0.0182     1.8884     1.8884     0.0000
  1 B      5.0091     5.0000    -0.0091     1.9861     1.9861    -0.0000
  2 B      5.0091     5.0000    -0.0091     1.9861     1.9861    -0.0000
  3 B      4.9818     5.0000     0.0182     1.8884     1.8884    -0.0000
  4 B      5.0091     5.0000    -0.0091     1.9861     1.9861    -0.0000
  5 B      5.0091     5.0000    -0.0091     1.9861     1.9861    -0.0000
  6 B      4.9818     5.0000     0.0182     1.8884     1.8884    -0.0000
  7 B      5.0091     5.0000    -0.0091     1.9861     1.9861    -0.0000
  8 B      5.0091     5.0000    -0.0091     1.9861     1.9861    -0.0000
  9 B      4.9818     5.0000     0.0182     1.8884     1.8884    -0.0000
 10 B      5.0091     5.0000    -0.0091     1.9861     1.9861     0.0000
 11 B      5.0091     5.0000    -0.0091     1.9861     1.9861     0.0000

  Mayer bond orders larger than 0.100000
B(  0-B ,  1-B ) :   0.2358 B(  0-B ,  2-B ) :   0.2358 B(  0-B ,  4-B ) :   0.1550 
B(  0-B ,  5-B ) :   0.1550 B(  0-B ,  7-B ) :   0.2358 B(  0-B ,  8-B ) :   0.2358 
B(  0-B ,  9-B ) :   0.2605 B(  0-B , 10-B ) :   0.1550 B(  0-B , 11-B ) :   0.1550 
B(  1-B ,  2-B ) :   0.3382 B(  1-B ,  3-B ) :   0.1550 B(  1-B ,  4-B ) :   0.1036 
B(  1-B ,  5-B ) :   0.3382 B(  1-B ,  6-B ) :   0.2358 B(  1-B ,  8-B ) :   0.1022 
B(  1-B ,  9-B ) :   0.1550 B(  1-B , 10-B ) :   0.1461 B(  1-B , 11-B ) :   0.1022 
B(  2-B ,  3-B ) :   0.2358 B(  2-B ,  4-B ) :   0.3382 B(  2-B ,  5-B ) :   0.1036 
B(  2-B ,  6-B ) :   0.1550 B(  2-B ,  7-B ) :   0.1022 B(  2-B ,  9-B ) :   0.1550 
B(  2-B , 10-B ) :   0.1022 B(  2-B , 11-B ) :   0.1461 B(  3-B ,  4-B ) :   0.2358 
B(  3-B ,  5-B ) :   0.1550 B(  3-B ,  6-B ) :   0.2605 B(  3-B ,  7-B ) :   0.1550 
B(  3-B ,  8-B ) :   0.2358 B(  3-B , 10-B ) :   0.2358 B(  3-B , 11-B ) :   0.1550 
B(  4-B ,  5-B ) :   0.3383 B(  4-B ,  6-B ) :   0.1550 B(  4-B ,  7-B ) :   0.1461 
B(  4-B ,  8-B ) :   0.1022 B(  4-B ,  9-B ) :   0.2358 B(  4-B , 11-B ) :   0.1022 
B(  5-B ,  6-B ) :   0.2358 B(  5-B ,  7-B ) :   0.1022 B(  5-B ,  8-B ) :   0.1461 
B(  5-B ,  9-B ) :   0.2358 B(  5-B , 10-B ) :   0.1022 B(  6-B ,  7-B ) :   0.2358 
B(  6-B ,  8-B ) :   0.1550 B(  6-B , 10-B ) :   0.1550 B(  6-B , 11-B ) :   0.2358 
B(  7-B ,  8-B ) :   0.3383 B(  7-B ,  9-B ) :   0.1550 B(  7-B , 10-B ) :   0.1036 
B(  7-B , 11-B ) :   0.3382 B(  8-B ,  9-B ) :   0.1550 B(  8-B , 10-B ) :   0.3382 
B(  8-B , 11-B ) :   0.1036 B(  9-B , 10-B ) :   0.2358 B(  9-B , 11-B ) :   0.2358 
B( 10-B , 11-B ) :   0.3382 

-------
TIMINGS
-------

Total SCF time: 0 days 0 hours 0 min 12 sec 

Total time                  ....      12.185 sec
Sum of individual times     ....      11.781 sec  ( 96.7%)

SCF preparation             ....       0.588 sec  (  4.8%)
Fock matrix formation       ....       9.464 sec  ( 77.7%)
  Startup                   ....       0.026 sec  (  0.3% of F)
  Split-RI-J                ....       3.286 sec  ( 34.7% of F)
  XC integration            ....       5.764 sec  ( 60.9% of F)
    XC Preparation          ....       0.000 sec  (  0.0% of XC)
    Basis function eval.    ....       1.457 sec  ( 25.3% of XC)
    Density eval.           ....       0.805 sec  ( 14.0% of XC)
    XC-Functional eval.     ....       0.239 sec  (  4.1% of XC)
    XC-Potential eval.      ....       0.809 sec  ( 14.0% of XC)
Diagonalization             ....       0.000 sec  (  0.0%)
Density matrix formation    ....       0.279 sec  (  2.3%)
Total Energy calculation    ....       0.145 sec  (  1.2%)
Population analysis         ....       0.035 sec  (  0.3%)
Orbital Transformation      ....       0.033 sec  (  0.3%)
Orbital Orthonormalization  ....       0.000 sec  (  0.0%)
DIIS solution               ....       0.341 sec  (  2.8%)
SOSCF solution              ....       0.895 sec  (  7.3%)
Finished LeanSCF after  12.2 sec

Maximum memory used throughout the entire LEANSCF-calculation: 9.6 MB


-------------------------------------------------------------------------------
                          DFT DISPERSION CORRECTION                            
                                                                               
                              DFTD3 V3.1  Rev 1                                
                          USING Becke-Johnson damping                          
-------------------------------------------------------------------------------
The BP86 functional is recognized
Active option DFTDOPT                   ...         4   

molecular C6(AA) [au] = 15295.616625 


            DFT-D V3
 parameters
 s6 scaling factor         :     1.0000 
 a1 scaling factor         :     0.3946 
 s8 scaling factor         :     3.2822 
 a2 scaling factor         :     4.8516 
 ad hoc parameters k1-k3   :    16.0000     1.3333    -4.0000 

 Edisp/kcal,au: -40.491102635453  -0.064526672488 
 E6   /kcal   : -12.012634696 
 E8   /kcal   : -28.478467939 
 % E8         :  70.332656029 

-------------------------   ----------------
Dispersion correction           -0.064526672
-------------------------   ----------------


-------------------------   --------------------
FINAL SINGLE POINT ENERGY      -295.997097642253
-------------------------   --------------------



           ************************************************************
           *        Program running with 8 parallel MPI-processes     *
           *              working on a common directory               *
           ************************************************************
------------------------------------------------------------------------------
                         ORCA SCF GRADIENT CALCULATION
------------------------------------------------------------------------------

Nuc. rep. gradient        (SHARK) ... done (  0.0 sec)
HCore & Overlap gradient  (SHARK) ... done (  0.0 sec)
Split-RIJ-J gradient      (SHARK) ... done (  0.3 sec)
XC gradient                       ... done (  0.7 sec)
Dispersion correction             ... done (  0.0 sec)

-------------------
DISPERSION GRADIENT
-------------------

   1   B   :    0.000000000   -0.001376770   -0.001376770
   2   B   :   -0.001376770    0.000000000   -0.001376770
   3   B   :   -0.001376770   -0.001376770    0.000000000
   4   B   :    0.000000000   -0.001376770    0.001376770
   5   B   :   -0.001376770    0.000000000    0.001376770
   6   B   :   -0.001376770    0.001376770    0.000000000
   7   B   :    0.000000000    0.001376770   -0.001376770
   8   B   :    0.001376770    0.000000000   -0.001376770
   9   B   :    0.001376770   -0.001376770    0.000000000
  10   B   :    0.000000000    0.001376770    0.001376770
  11   B   :    0.001376770    0.000000000    0.001376770
  12   B   :    0.001376770    0.001376770    0.000000000

Difference to translation invariance:
           :   -0.0000000000   -0.0000000000   -0.0000000000

Difference to rotation invariance:
           :    0.0000000000   -0.0000000000    0.0000000000

Norm of the Dispersion gradient    ...    0.0067447685
RMS gradient                       ...    0.0011241281
MAX gradient                       ...    0.0013767701

------------------
CARTESIAN GRADIENT
------------------

   1   B   :   -0.000000396   -0.016615718   -0.016614312
   2   B   :   -0.021507726    0.000000112   -0.030656338
   3   B   :   -0.021507319   -0.030655376    0.000000843
   4   B   :   -0.000001852   -0.016611472    0.016613125
   5   B   :   -0.021506371   -0.000003473    0.030655592
   6   B   :   -0.021508719    0.030658057    0.000000135
   7   B   :    0.000001878    0.016611591   -0.016613028
   8   B   :    0.021506312    0.000003364   -0.030655655
   9   B   :    0.021508801   -0.030658032   -0.000000100
  10   B   :    0.000000290    0.016615738    0.016614350
  11   B   :    0.021507757   -0.000000196    0.030656283
  12   B   :    0.021507345    0.030655406   -0.000000895

Difference to translation invariance:
           :   -0.0000000000    0.0000000000    0.0000000000

Difference to rotation invariance:
           :   -0.0000009692    0.0000014257   -0.0000013485

Norm of the Cartesian gradient     ...    0.1158757855
RMS gradient                       ...    0.0193126309
MAX gradient                       ...    0.0306580572

-------
TIMINGS
-------

Total SCF gradient time     ....        1.127 sec

Densities                   ....       0.001 sec  (  0.1%)
One electron gradient       ....       0.041 sec  (  3.6%)
RI-J Coulomb gradient       ....       0.338 sec  ( 30.0%)
XC gradient                 ....       0.695 sec  ( 61.7%)

Maximum memory used throughout the entire SCFGRAD-calculation: 29.3 MB
------------------------------------------------------------------------------
                         ORCA GEOMETRY RELAXATION STEP
------------------------------------------------------------------------------

Reading the OPT-File                    .... done
Getting information on internals        .... done
Copying old internal coords+grads       .... done
Making the new internal coordinates     .... (2022 redundants) done
Validating the new internal coordinates .... (2022 redundants) done
Calculating the B-matrix                .... done
Calculating the G,G- and P matrices     .... done
Transforming gradient to internals      .... done
Projecting the internal gradient        .... done
Number of atoms                         ....  12
Number of internal coordinates          .... 240
Current Energy                          ....  -295.997097642 Eh
Current gradient norm                   ....     0.115875786 Eh/bohr
Maximum allowed component of the step   ....  0.300
Current trust radius                    ....  0.300
Evaluating the initial hessian          ....  (Almloef) done
Projecting the Hessian                  .... done
Forming the augmented Hessian           .... done
Diagonalizing the augmented Hessian     .... done
Last element of RFO vector              ....  0.729550278
Lowest eigenvalues of augmented Hessian:
 -0.075895097  0.010000000  0.013342993  0.013349829  0.013353550
Length of the computed step             ....  0.937464085
Warning: the length of the step is outside the trust region - taking restricted step instead
The input lambda is                     ....     0.009000
   iter:   5  x=    0.002396  g=97085.906647 f(x)=   246.378449
   iter:  10  x=   -0.047465  g=  224.183826 f(x)=     4.249000
   iter:  15  x=   -0.248235  g=    1.169897 f(x)=     0.040923
   iter:  20  x=   -0.259389  g=    0.666694 f(x)=    -0.000000
The output lambda is                    ....    -0.259389 (20 iterations)
The final length of the internal step   ....  0.300000000
Converting the step to Cartesian space:
 Initial RMS(Int)=    0.0193649167
Transforming coordinates:
 Iter   0:  RMS(Cart)=    0.0351390612 RMS(Int)=    0.0193634174
done
Storing new coordinates                 .... done

                                .--------------------.
          ----------------------|Geometry convergence|-------------------------
          Item                value                   Tolerance       Converged
          ---------------------------------------------------------------------
[...]
      pz      :     0.901738  p :     2.340279
      px      :     0.592700
      py      :     0.845841
      dz2     :     0.016049  d :     0.081834
      dxz     :     0.015380
      dyz     :     0.018337
      dx2y2   :     0.017193
      dxy     :     0.014875

  9 B s       :     2.878484  s :     2.878484
      pz      :     0.733342  p :     2.054884
      px      :     0.729092
      py      :     0.592450
      dz2     :     0.014221  d :     0.068141
      dxz     :     0.012283
      dyz     :     0.013634
      dx2y2   :     0.014157
      dxy     :     0.013846

 10 B s       :     2.878912  s :     2.878912
      pz      :     0.642284  p :     2.055240
      px      :     0.609110
      py      :     0.803847
      dz2     :     0.016059  d :     0.068152
      dxz     :     0.014499
      dyz     :     0.016613
      dx2y2   :     0.010384
      dxy     :     0.010597

 11 B s       :     2.523219  s :     2.523219
      pz      :     0.840520  p :     2.206408
      px      :     0.612351
      py      :     0.753536
      dz2     :     0.015618  d :     0.075761
      dxz     :     0.015070
      dyz     :     0.015420
      dx2y2   :     0.014519
      dxy     :     0.015133



                     *******************************
                     * LOEWDIN POPULATION ANALYSIS *
                     *******************************

----------------------
LOEWDIN ATOMIC CHARGES
----------------------
   0 B :   -0.066666
   1 B :    0.027046
   2 B :    0.027084
   3 B :   -0.078919
   4 B :    0.156707
   5 B :   -0.078489
   6 B :    0.053927
   7 B :   -0.029905
   8 B :    0.054311
   9 B :   -0.034052
  10 B :   -0.033704
  11 B :    0.002658

-------------------------------
LOEWDIN REDUCED ORBITAL CHARGES
-------------------------------
  0 B s       :     2.717052  s :     2.717052
      pz      :     0.609482  p :     2.209428
      px      :     0.830496
      py      :     0.769451
      dz2     :     0.027838  d :     0.140186
      dxz     :     0.020745
      dyz     :     0.026846
      dx2y2   :     0.028337
      dxy     :     0.036421

  1 B s       :     2.798906  s :     2.798906
      pz      :     0.640524  p :     2.046456
      px      :     0.633351
      py      :     0.772581
      dz2     :     0.034482  d :     0.127592
      dxz     :     0.021748
      dyz     :     0.019311
      dx2y2   :     0.022248
      dxy     :     0.029803

  2 B s       :     2.798883  s :     2.798883
      pz      :     0.915188  p :     2.046363
      px      :     0.526893
      py      :     0.604282
      dz2     :     0.026257  d :     0.127670
      dxz     :     0.023650
      dyz     :     0.033937
      dx2y2   :     0.021634
      dxy     :     0.022192

  3 B s       :     2.698936  s :     2.698936
      pz      :     0.771049  p :     2.231907
      px      :     0.709073
      py      :     0.751784
      dz2     :     0.036208  d :     0.148076
      dxz     :     0.031770
      dyz     :     0.032479
      dx2y2   :     0.020779
      dxy     :     0.026839

  4 B s       :     2.619501  s :     2.619501
      pz      :     0.590285  p :     2.011789
      px      :     0.623700
      py      :     0.797805
      dz2     :     0.043401  d :     0.212003
      dxz     :     0.032408
      dyz     :     0.047332
      dx2y2   :     0.046918
      dxy     :     0.041944

  5 B s       :     2.699169  s :     2.699169
      pz      :     0.796275  p :     2.231314
      px      :     0.747805
      py      :     0.687234
      dz2     :     0.024256  d :     0.148006
      dxz     :     0.028960
      dyz     :     0.024766
      dx2y2   :     0.042073
      dxy     :     0.027952

  6 B s       :     2.590653  s :     2.590653
      pz      :     0.744280  p :     2.151227
      px      :     0.839202
      py      :     0.567745
      dz2     :     0.040375  d :     0.204193
      dxz     :     0.045087
      dyz     :     0.031831
      dx2y2   :     0.042787
      dxy     :     0.044113

  7 B s       :     2.642845  s :     2.642845
      pz      :     0.746913  p :     2.254701
      px      :     0.689161
      py      :     0.818627
      dz2     :     0.039301  d :     0.132359
      dxz     :     0.023437
      dyz     :     0.030563
      dx2y2   :     0.021439
      dxy     :     0.017619

  8 B s       :     2.591051  s :     2.591051
      pz      :     0.814919  p :     2.151078
      px      :     0.570398
      py      :     0.765761
      dz2     :     0.044904  d :     0.203559
      dxz     :     0.038237
      dyz     :     0.045880
      dx2y2   :     0.041054
      dxy     :     0.033485

  9 B s       :     2.634682  s :     2.634682
      pz      :     0.762676  p :     2.223516
      px      :     0.784990
      py      :     0.675850
      dz2     :     0.039555  d :     0.175854
      dxz     :     0.035571
      dyz     :     0.027840
      dx2y2   :     0.033896
      dxy     :     0.038992

 10 B s       :     2.634722  s :     2.634722
      pz      :     0.712104  p :     2.223125
      px      :     0.670933
      py      :     0.840088
      dz2     :     0.034125  d :     0.175857
      dxz     :     0.034919
      dyz     :     0.044141
      dx2y2   :     0.031706
      dxy     :     0.030966

 11 B s       :     2.576652  s :     2.576652
      pz      :     0.787670  p :     2.226626
      px      :     0.669353
      py      :     0.769603
      dz2     :     0.041077  d :     0.194064
      dxz     :     0.042624
      dyz     :     0.043158
      dx2y2   :     0.035532
      dxy     :     0.031673



                      *****************************
                      * MAYER POPULATION ANALYSIS *
                      *****************************

  NA   - Mulliken gross atomic population
  ZA   - Total nuclear charge
  QA   - Mulliken gross atomic charge
  VA   - Mayer's total valence
  BVA  - Mayer's bonded valence
  FA   - Mayer's free valence

  ATOM       NA         ZA         QA         VA         BVA        FA
  0 B      4.6855     5.0000     0.3145     3.8989     3.8989     0.0000
  1 B      5.1790     5.0000    -0.1790     3.5488     3.5488     0.0000
  2 B      5.1814     5.0000    -0.1814     3.5504     3.5504     0.0000
  3 B      5.1314     5.0000    -0.1314     3.5667     3.5667    -0.0000
  4 B      4.9268     5.0000     0.0732     3.4020     3.4020    -0.0000
  5 B      5.1308     5.0000    -0.1308     3.5644     3.5644    -0.0000
  6 B      4.9788     5.0000     0.0212     3.7104     3.7104     0.0000
  7 B      5.0004     5.0000    -0.0004     4.6459     4.6459     0.0000
  8 B      4.9768     5.0000     0.0232     3.7088     3.7088     0.0000
  9 B      5.0015     5.0000    -0.0015     3.9744     3.9744     0.0000
 10 B      5.0023     5.0000    -0.0023     3.9756     3.9756     0.0000
 11 B      4.8054     5.0000     0.1946     3.8416     3.8416     0.0000

  Mayer bond orders larger than 0.100000
B(  0-B ,  1-B ) :   0.9970 B(  0-B ,  2-B ) :   0.9962 B(  0-B ,  4-B ) :   0.1483 
B(  0-B ,  6-B ) :   0.1948 B(  0-B ,  7-B ) :   1.0706 B(  0-B ,  8-B ) :   0.1911 
B(  1-B ,  2-B ) :   0.2086 B(  1-B ,  4-B ) :   0.4106 B(  1-B ,  5-B ) :   1.0145 
B(  1-B ,  6-B ) :   0.3171 B(  1-B ,  7-B ) :   0.1672 B(  1-B ,  9-B ) :   0.1468 
B(  1-B , 10-B ) :   0.1291 B(  1-B , 11-B ) :   0.1547 B(  2-B ,  3-B ) :   1.0133 
B(  2-B ,  4-B ) :   0.4103 B(  2-B ,  7-B ) :   0.1689 B(  2-B ,  8-B ) :   0.3177 
B(  2-B ,  9-B ) :   0.1295 B(  2-B , 10-B ) :   0.1485 B(  2-B , 11-B ) :   0.1544 
B(  3-B ,  4-B ) :   0.5889 B(  3-B ,  7-B ) :   0.1977 B(  3-B ,  8-B ) :   0.4792 
B(  3-B , 10-B ) :   0.9466 B(  3-B , 11-B ) :   0.1252 B(  4-B ,  5-B ) :   0.5874 
B(  4-B ,  6-B ) :   0.1568 B(  4-B ,  8-B ) :   0.1566 B(  4-B ,  9-B ) :   0.4578 
B(  4-B , 10-B ) :   0.4585 B(  5-B ,  6-B ) :   0.4792 B(  5-B ,  7-B ) :   0.1974 
B(  5-B ,  9-B ) :   0.9463 B(  5-B , 11-B ) :   0.1251 B(  6-B ,  7-B ) :   0.8217 
B(  6-B ,  8-B ) :   0.2655 B(  6-B ,  9-B ) :   0.5465 B(  6-B , 11-B ) :   0.7691 
B(  7-B ,  8-B ) :   0.8251 B(  7-B ,  9-B ) :   0.3001 B(  7-B , 10-B ) :   0.3006 
B(  7-B , 11-B ) :   0.6374 B(  8-B , 10-B ) :   0.5468 B(  8-B , 11-B ) :   0.7679 
B(  9-B , 10-B ) :   0.7616 B(  9-B , 11-B ) :   0.4868 B( 10-B , 11-B ) :   0.4857 


-------
TIMINGS
-------

Total SCF time: 0 days 0 hours 0 min 5 sec 

Total time                  ....       5.491 sec
Sum of individual times     ....       5.117 sec  ( 93.2%)

SCF preparation             ....       0.546 sec  (  9.9%)
Fock matrix formation       ....       3.677 sec  ( 67.0%)
  Startup                   ....       0.008 sec  (  0.2% of F)
  Split-RI-J                ....       1.147 sec  ( 31.2% of F)
  XC integration            ....       2.582 sec  ( 70.2% of F)
    XC Preparation          ....       0.000 sec  (  0.0% of XC)
    Basis function eval.    ....       0.485 sec  ( 18.8% of XC)
    Density eval.           ....       0.371 sec  ( 14.4% of XC)
    XC-Functional eval.     ....       0.055 sec  (  2.1% of XC)
    XC-Potential eval.      ....       0.461 sec  ( 17.9% of XC)
Diagonalization             ....       0.000 sec  (  0.0%)
Density matrix formation    ....       0.097 sec  (  1.8%)
Total Energy calculation    ....       0.291 sec  (  5.3%)
Population analysis         ....       0.172 sec  (  3.1%)
Orbital Transformation      ....       0.016 sec  (  0.3%)
Orbital Orthonormalization  ....       0.000 sec  (  0.0%)
DIIS solution               ....       0.030 sec  (  0.5%)
SOSCF solution              ....       0.288 sec  (  5.2%)
Finished LeanSCF after   5.7 sec

Maximum memory used throughout the entire LEANSCF-calculation: 13.0 MB


-------------------------------------------------------------------------------
                          DFT DISPERSION CORRECTION                            
                                                                               
                              DFTD3 V3.1  Rev 1                                
                          USING Becke-Johnson damping                          
-------------------------------------------------------------------------------
The BP86 functional is recognized
Active option DFTDOPT                   ...         4   

molecular C6(AA) [au] = 4153.910234 


            DFT-D V3
 parameters
 s6 scaling factor         :     1.0000 
 a1 scaling factor         :     0.3946 
 s8 scaling factor         :     3.2822 
 a2 scaling factor         :     4.8516 
 ad hoc parameters k1-k3   :    16.0000     1.3333    -4.0000 

 Edisp/kcal,au: -23.959942300506  -0.038182594423 
 E6   /kcal   :  -6.818168028 
 E8   /kcal   : -17.141774272 
 % E8         :  71.543470587 

-------------------------   ----------------
Dispersion correction           -0.038182594
-------------------------   ----------------


-------------------------   --------------------
FINAL SINGLE POINT ENERGY      -297.659722753526
-------------------------   --------------------

                                *** OPTIMIZATION RUN DONE ***



           ************************************************************
           *        Program running with 8 parallel MPI-processes     *
           *              working on a common directory               *
           ************************************************************

------------------------------------------------------------------------------
                              ORCA PROPERTY CALCULATIONS
------------------------------------------------------------------------------

GBWName                                 ... cuboctahedron_nn3.00.gbw
Number of atoms                         ...     12
Number of basis functions               ...    168
Max core memory                         ...   2500 MB

Electric properties:
Dipole moment                           ... YES
Quadrupole moment                       ...  NO
Static polarizability (Dipole/Dipole)   ...  NO
Static polarizability (Dipole/Quad.)    ...  NO
Static polarizability (Quad./Quad.)     ...  NO
Static polarizability (Velocity)        ...  NO
Static hyperpolarizability              ...  NO

Atomic electric properties:
Dipole moment                           ...  NO
Quadrupole moment                       ...  NO
Static polarizability                   ...  NO

Choice of electric origin               ... Center of mass
Position of electric origin             ...    -0.000000     0.000000    -0.000000

General magnetic properties:
Magnetizability                         ...  NO

EPR properties:
g-Tensor (aka g-matrix)                 ...  NO
Zero-Field splitting spin-orbit         ...  NO
Zero-field splitting spin-spin          ...  NO
Hyperfine couplings                     ...  NO (   0 nuclei)
Quadrupole couplings                    ...  NO (   0 nuclei)
Contact density                         ...  NO (   0 nuclei)

NMR properties:
Chemical shifts                         ...  NO (   0 nuclei)
Spin-rotation constants                 ...  NO (   0 nuclei)
Spin-spin couplings                     ...  NO (   0 nuclei,    0 pairs)

Choice of magnetic origin               ... GIAO
Position of magnetic origin             ...     0.000000     0.000000     0.000000

Properties with geometric perturbations:
SCF Hessian                             ...  NO
IR spectrum                             ...  NO
VCD spectrum                            ...  NO
X-ray spectroscopy properties:
SCF XES/XAS/RIXS spectra                ...  NO

SCF SOC stabilization energy            ...  NO
Diagonal Born-Oppenheimer correction    ...  NO

-------------
DIPOLE MOMENT
-------------

Method             : SCF
Type of density    : Electron Density
Multiplicity       :   1
Irrep              :   0
Energy             :  -297.6215401591030627 Eh
Basis              : AO
                                X                 Y                 Z
Electronic contribution:      0.581345446       0.336711294       0.089137993
Nuclear contribution   :     -0.000000000       0.000000000      -0.000000000
                        -----------------------------------------
Total Dipole Moment    :      0.581345446       0.336711294       0.089137993
                        -----------------------------------------
Magnitude (a.u.)       :      0.677703921
Magnitude (Debye)      :      1.722586472



--------------------
Rotational spectrum 
--------------------
 
Rotational constants in cm-1:             0.074619             0.068261             0.059852 
Rotational constants in MHz :          2237.035188          2046.423424          1794.318700 

Dipole components along the rotational axes: 
x,y,z [a.u.] :    -0.001683    -0.460638    -0.497084 
x,y,z [Debye]:    -0.004278    -1.170850    -1.263486 

 

Dipole moment calculation done in   0.1 sec 

Maximum memory used throughout the entire PROP-calculation: 10.4 MB

--------------------------------
SUGGESTED CITATIONS FOR THIS RUN
--------------------------------

Below you find a list of papers that are relevant to this ORCA run
We neither can nor want to force you to cite these papers, but we appreciate if you do
You receive ORCA, which is the product of decades of hard work by many enthusiastic individuals, for free
The only thing we kindly ask in return is that you cite our papers,
We deeply appreciate it, if you show your appreciation for ORCA by not just citing the generic ORCA reference.

Please note that relegating all ORCA citations to the supporting information does *not* help us.
SI sections are not indexed - citations you put there will not count into any citation statistics
But we need these citations in order to attract the funding resources that allow us to do what we are doing

Therefore, if you are a happy ORCA user, please consider citing a few of the papers listed below in the main body of your paper

In addition to the list printed below, the program has created the file cuboctahedron_nn3.00.bibtex that contains the list in bibtex format
You can import this file easily into all common literature databanks and citation aid programs

It goes without saying that in many instances, there are alternative algorithms to achieve similar
results as the ones you have gotten from ORCA. It is, of course, also the case that in some instances
ORCA just re-implements algorithms worked out by others. We are fully aware of that and we are also
fully appreciative of our colleagues work. Hence this citation list should not be read as indicating
that the listed papers, which are focused on our own work, are the only ones worth citing. It simply
meant to make it easier for users to cite ORCA specific papers. It is not a substitute for doing your
own literature research and citing the relevant literature in a scientifically appropriate manner.

List of essential papers. We consider these as the minimum necessary citations

  1. Neese, F.
     Software update: the ORCA program system, version 6.0
     WIRES Comput. Molec. Sci. 2025 15(1), e70019
     doi.org/10.1002/wcms.70019

List of papers to cite with high priority. The work reported in these papers was absolutely
necessary for this run to complete.
Our perspective: the developers of density functionals and basis sets usually get cited in chemistry papers
Good! But without the algorithms to do something with them, the functionals or basis sets would not do anything.
Hence, in our opinion, the algorithm design and method developments papers are equally worthy of getting cited

  1. Neese, F.
     An improvement of the resolution of the identity approximation for the formation of the Coulomb matrix
     J. Comp. Chem. 2003 24(14), 1740-1747
     doi.org/10.1002/jcc.10318
  2. Grimme, S.; Antony, J.; Ehrlich, S.; Krieg, H.
     A consistent and accurate ab initio parametrization of density functional dispersion correction (DFT-D) for the 94 elements H-Pu
     J. Chem. Phys. 2010 132 , 154104
     doi.org/10.1063/1.3382344
  3. Grimme, S.; Ehrlich, S.; Goerigk, L.
     Effect of the damping function in dispersion corrected density functional theory
     J. Comput. Chem. 2011 32(7), 1456-1465
     doi.org/10.1002/jcc.21759
  4. Neese, F.
     The SHARK Integral Generation and Digestion System
     J. Comp. Chem. 2022 44(3), 381
     doi.org/10.1002/jcc.26942

List of suggested additional citations. These are papers that are important in the 'surrounding' of 
of this run, or papers that preceded the highly important papers. If you like your results we are grateful for a citation.

  1. Neese, F.
     The ORCA program system
     WIRES Comput. Molec. Sci. 2012 2(1), 73-78
     doi.org/10.1002/wcms.81
  2. Neese, F.
     Software update: the ORCA program system, version 4.0
     WIRES Comput. Molec. Sci. 2018 8(1), 1-6
     doi.org/10.1002/wcms.1327
  3. Neese, F.; Wennmohs, F.; Becker, U.; Riplinger, C.
     The ORCA quantum chemistry program package
     J. Chem. Phys. 2020 152(22), 224108
     doi.org/10.1063/5.0004608
  4. Neese, F.
     Software update: The ORCA program system—Version 5.0
     WIRES Comput. Molec. Sci. 2022 12(1), e1606
     doi.org/10.1002/wcms.1606

List of optional additional citations

  1. Neese, F.
     Approximate second-order SCF convergence for spin unrestricted wavefunctions
     Chem. Phys. Lett. 2000 325(1-3), 93-98
     doi.org/10.1016/s0009-2614(00)00662-x

Timings for individual modules:

Sum of individual times          ...      841.654 sec (=  14.028 min)
Startup calculation              ...      103.521 sec (=   1.725 min)  12.3 %
SCF iterations                   ...      589.901 sec (=   9.832 min)  70.1 %
Property calculations            ...        0.786 sec (=   0.013 min)   0.1 %
SCF Gradient evaluation          ...      146.130 sec (=   2.436 min)  17.4 %
Geometry relaxation              ...        1.316 sec (=   0.022 min)   0.2 %
                             ****ORCA TERMINATED NORMALLY****
TOTAL RUN TIME: 0 days 0 hours 14 minutes 54 seconds 549 msec
