
                                 *****************
                                 * O   R   C   A *
                                 *****************

                                            #,                                       
                                            ###                                      
                                            ####                                     
                                            #####                                    
                                            ######                                   
                                           ########,                                 
                                     ,,################,,,,,                         
                               ,,#################################,,                 
                          ,,##########################################,,             
                       ,#########################################, ''#####,          
                    ,#############################################,,   '####,        
                  ,##################################################,,,,####,       
                ,###########''''           ''''###############################       
              ,#####''   ,,,,##########,,,,          '''####'''          '####       
            ,##' ,,,,###########################,,,                        '##       
           ' ,,###''''                  '''############,,,                           
         ,,##''                                '''############,,,,        ,,,,,,###''
      ,#''                                            '''#######################'''  
     '                                                          ''''####''''         
             ,#######,   #######,   ,#######,      ##                                
            ,#'     '#,  ##    ##  ,#'     '#,    #''#        ,####,    ,#,          
            ##       ##  ##   ,#'  ##            #'  '#       #'       ,# #          
            ##       ##  #######   ##           ,######,      #####,      #          
            '#,     ,#'  ##    ##  '#,     ,#' ,#      #,     #,   #      #          
             '#######'   ##     ##  '#######'  #'      '#     '####' #    #          



                #########################################################
                #                        -***-                          #
                #          Department of theory and spectroscopy        #
                #                                                       #
                #                      Frank Neese                      #
                #                                                       #
                #     Directorship, Architecture, Infrastructure        #
                #                    SHARK, DRIVERS                     #
                #        Core code/Algorithms in most modules           #
                #                                                       #
                #        Max Planck Institute fuer Kohlenforschung      #
                #                Kaiser Wilhelm Platz 1                 #
                #                 D-45470 Muelheim/Ruhr                 #
                #                      Germany                          #
                #                                                       #
                #                  All rights reserved                  #
                #                        -***-                          #
                #########################################################


                         Program Version 6.1.1  -  RELEASE   -
                                (GIT: $487d211c$)
                          ($2025-11-21 10:33:24 +0100$)
                                                                         
                                  - NO-DMRG VERSION -                    
                                                                         


 With contributions from (in alphabetic order):
[Max-Planck-Institut fuer Kohlenforschung]                               
  Daniel Aravena         : Magnetic Suceptibility                        
  Michael Atanasov       : Ab Initio Ligand Field Theory (pilot matlab implementation)
  Alexander A. Auer      : GIAO ZORA, VPT2 properties, NMR spectrum      
  Ute Becker             : All parallelization in ORCA, NUMFREQ, NUMCALC 
  Giovanni Bistoni       : ED, misc. LED, open-shell LED, HFLD           
  Dmytro Bykov           : pre 5.0 version of the SCF Hessian            
  Marcos Casanova-Páez   : Triplet and SCS-CIS(D). UHF-(DLPNO)-IP/EA/STEOM-CCSD. UHF-CVS-IP/STEOM-CCSD   
  Vijay G. Chilkuri      : MRCI spin determinant printing, contributions to CSF-ICE 
  Pauline Colinet        : FMM embedding                                 
  Dipayan Datta          : RHF DLPNO-CCSD density                        
  Achintya Kumar Dutta   : EOM-CC, STEOM-CC                              
  Nicolas Foglia         : Exact transition moments, OPA infrastructure, MCD improvements    
  Dmitry Ganyushin       : Spin-Orbit,Spin-Spin,Magnetic field MRCI      
  Miquel Garcia-Rates    : C-PCM and meta-GGA Hessian, CCSD/C-PCM, Gaussian charge scheme 
  Tiago L. C. Gouveia    : GS-ROHF, GS-ROCIS                             
  Yang Guo               : DLPNO-NEVPT2, F12-NEVPT2, CIM, IAO-localization        
  Andreas Hansen         : Spin unrestricted coupled pair/coupled cluster methods 
  Ingolf Harden          : AUTO-CI MPn and infrastructure                
  Benjamin Helmich-Paris : MC-RPA, TRAH-(SCF,CASSCF), AVAS, COSX integrals, SCF dyn. polar., MC-PDFT, srDFT 
  Lee Huntington         : MR-EOM, pCC                                   
  Robert Izsak           : Overlap fitted RIJCOSX, COSX-SCS-MP3, EOM     
  Riya Kayal             : Wick's Theorem for AUTO-CI, AUTO-CI UHF-CCSDT 
  Emily Kempfer          : AUTO-CI RHF CISDT and CCSDT, approximate NEVPT4
  Christian Kollmar      : KDIIS, OOCD, Brueckner-CCSD(T), CCSD density, CASPT2, CASPT2-K, improved NEVPT2 
  Axel Koslowski         : Symmetry handling                             
  Simone Kossmann        : meta-GGA functionals, TD-DFT gradient, OOMP2, (MP2 Hessian; deprecated post 5.0) 
  Lucas Lang             : DCDCAS, Hyperfine gauge corrections, ICE-SOC+SSC
  Marvin Lechner         : AUTO-CI (C++ implementation), FIC-MRCC        
  Spencer Leger          : CASSCF response                               
  Dagmar Lenk            : GEPOL surface, SMD, ORCA-2-JSON               
  Dimitrios Liakos       : Extrapolation schemes; Compound Job, Property file
  Dimitrios Manganas     : Further ROCIS development; embedding schemes. LFT, Crystal Embedding 
  Dimitrios Pantazis     : SARC Basis sets                               
  Anastasios Papadopoulos: AUTO-CI, single reference methods and gradients 
  Taras Petrenko         : pre 6.0 DFT Hessian and TD-DFT gradient,  ECA, NRVS 
  Petra Pikulova         : Analytic Raman intensities                    
  Peter Pinski           : DLPNO-MP2, DLPNO-MP2 Gradient                 
  Shashank Vittal Rao    : ES-AILFT, MagRelax                            
  Christoph Reimann      : Effective Core Potentials                     
  Marius Retegan         : Local ZFS, SOC                                
  Christoph Riplinger    : Optimizer, TS searches, QM/MM, DLPNO-CCSD(T), (RO)-DLPNO pert. Triples 
  Michael Roemelt        : Original ROCIS implementation, recursive CI coupling coefficients
  Masaaki Saitow         : Open-shell DLPNO-CCSD energy and density      
  Barbara Sandhoefer     : DKH picture change effects                    
  Yorick L. A. Schmerwitz: GMF and freeze-and-release deltaSCF, NEB S-IDPP initial path                    
  Kantharuban Sivalingam : CASSCF convergence/infrastructure, NEVPT2, NEVPT3, NEVPT4(SD), FIC-MRCI and CEPA variants
  Bernardo de Souza      : ESD, SOC TD-DFT                               
  Georgi L. Stoychev     : AutoAux, RI-MP2 NMR, DLPNO-MP2 response, X2C  
  Van Anh Tran           : RI-MP2 g-tensors                              
  Willem Van den Heuvel  : Paramagnetic NMR                              
  Zikuan Wang            : NOTCH, Electric field optimization            
  Frank Wennmohs         : Technical directorship and infrastructure     
  Hang Xu                : AUTO-CI-Response properties                   
                                                                         
[FACCTs GmbH]                                                            
  Markus Bursch, Nicolas Foglia, Miquel Garcia-Rates, Ingolf Harden, Hagen Neugebauer, Anastasios Papadopoulos, 
  Christoph Riplinger, Bernardo de Souza, Georgi L. Stoychev                                                    
                                                                 
  APM, various basis sets, CI-OPT, improved COSX, DLPNO-Multilevel,           
  DOCKER, DRACO, updates on ESD, Fragmentator, GOAT, IRC, LR-CPCM, L-BFGS, MBIS, meta-GGA TD-DFT gradient, ML-optimized integration grids, 
  MM, NACMEs, nearIR, NEB, NEB-TS, NL-DFT gradient (VV10), 2- and 3-layer-ONIOM, interface openCOSMO-RS, QMMM,   
  Crystal-QMMM, RESP, rigid body optimization, SF, symmetry and pop. for TD-DFT, various functionals, SOLVATOR                                   
                                                                         
[Other institutions]                                                     
  V. Asgeirsson          : NEB                                           
  Christoph Bannwarth    : sTDA-DFT, sTD-DFT, PBEh-3c, B97-3c, D3        
  Giovanni Bistoni       : ETS/NOCV, ADLD/ADEX, COVALED                  
  Martin Brehm           : Molecular dynamics                            
  Ronald Cardenas        : ETS/NOCV                                      
  Martina Colucci        : COVALED                                       
  Sebastian Ehlert       : rSCAN, r2SCAN, r2SCAN-3c, D4, dhf basis sets  
  Marvin Friede          : D4 for Fr, Ra, Ac-Lr                          
  Lars Goerigk           : TD-DFT with DH, B97 family of functionals     
  Stefan Grimme          : VdW corrections, initial TS optimization, DFT functionals, gCP, sTDA/sTD-DF 
  Waldemar Hujo          : DFT-NL                                        
  H. Jonsson             : NEB                                           
  Holger Kruse           : gCP                                           
  Marcel Mueller         : wB97X-3c, vDZP basis set                      
  Hagen Neugebauer       : wr2SCAN, Native XTB                           
  Gianluca Regni         : ADLD/ADEX                                     
  Tobias Risthaus        : pre 6.0 range-separated hybrid DFT and stability analysis
  Lukas Wittmann         : regularized MP2, r2SCAN double-hybrids, wr2SCAN        
                                                                         
We gratefully acknowledge several colleagues who have allowed us to      
interface, adapt or use parts of their codes:                            
  Ed Valeev, F. Pavosevic, A. Kumar             : LibInt (2-el integral package), F12 methods 
  Garnet Chan, S. Sharma, J. Yang, R. Olivares  : DMRG                   
  Ulf Ekstrom                                   : XCFun DFT Library      
  Mihaly Kallay                                 : mrcc  (arbitrary order and MRCC methods)
  Frank Weinhold                                : gennbo (NPA and NBO analysis)           
  Simon Mueller                                 : openCOSMO-RS                            
  Christopher J. Cramer and Donald G. Truhlar   : smd solvation model                     
  S Lehtola, MJT Oliveira, MAL Marques          : LibXC Library                           
  Liviu Ungur et al                             : ANISO software                          


 Your calculation uses the libint2 library for the computation of 2-el integrals
 For citations please refer to: http://libint.valeyev.net

 Your ORCA version has been built with support for libXC version: 7.0.0
 For citations please refer to: https://libxc.gitlab.io

 This ORCA versions uses:
   CBLAS   interface :  Fast vector & matrix operations
   LAPACKE interface :  Fast linear algebra routines
   SCALAPACK package :  Parallel linear algebra routines
   Shared memory     :  Shared parallel matrices
   BLAS/LAPACK       :  OpenBLAS 0.3.29  USE64BITINT DYNAMIC_ARCH NO_AFFINITY Zen SINGLE_THREADED
        Core in use  :  Zen
   Copyright (c) 2011-2014, The OpenBLAS Project


  ***********************************
  * Starting time: Thu Apr 23 17:48:31 2026
  * Host name:     vmi3233575
  * Process ID:    1378499
  * Working dir.:  /root/b12_scan/jobs/icosahedron_nn1.80
  ***********************************

NOTE: MaxCore=2500 MB was set to SCF,MP2,MDCI,CIPSI,MRCI,RASCI and CIS
      => If you want to overwrite this, your respective input block should be placed after the MaxCore statement
Your calculation utilizes the atom-pairwise dispersion correction
with the Becke-Johnson damping scheme (D3BJ)


================================================================================

----- Orbital basis set information -----
Your calculation utilizes the basis: def2-SVP
   F. Weigend and R. Ahlrichs, Phys. Chem. Chem. Phys. 7, 3297 (2005).

----- AuxJ basis set information -----
Your calculation utilizes the auxiliary basis: def2/J
   H-Rn: F. Weigend, Phys. Chem. Chem. Phys. 8, 1057 (2006).
   Fr-Lr: K. Eichkorn, F. Weigend, O. Treutler, R. Ahlrichs; Theor. Chem. Acc. 97, 119 (1997).

================================================================================
                                        WARNINGS
                       Please study these warnings very carefully!
================================================================================


WARNING: Geometry Optimization
  ===> : Switching off AutoStart
         For restart on a previous wavefunction, please use MOREAD

================================================================================
                                       INPUT FILE
================================================================================
NAME = icosahedron_nn1.80.inp
|  1> ! BP86 def2-SVP def2/J RI Opt TightSCF D3BJ
|  2> ! SlowConv
|  3> 
|  4> %pal nprocs 8 end
|  5> %maxcore 2500
|  6> 
|  7> %geom
|  8>   MaxIter 300
|  9> end
| 10> 
| 11> * xyz 0 1
| 12> B      0.00000000     -0.90000000     -1.45623059
| 13> B     -0.90000000     -1.45623059      0.00000000
| 14> B     -1.45623059      0.00000000     -0.90000000
| 15> B      0.00000000     -0.90000000      1.45623059
| 16> B     -0.90000000      1.45623059      0.00000000
| 17> B      1.45623059      0.00000000     -0.90000000
| 18> B      0.00000000      0.90000000     -1.45623059
| 19> B      0.90000000     -1.45623059      0.00000000
| 20> B     -1.45623059      0.00000000      0.90000000
| 21> B      0.00000000      0.90000000      1.45623059
| 22> B      0.90000000      1.45623059      0.00000000
| 23> B      1.45623059      0.00000000      0.90000000
| 24> *
| 25> 
| 26>                          ****END OF INPUT****
================================================================================

                       *****************************
                       * Geometry Optimization Run *
                       *****************************

Geometry optimization settings:
Update method            Update   .... BFGS
Choice of coordinates    CoordSys .... (2022) Redundant Internals
Initial Hessian          InHess   .... Almloef's Model
Max. no of cycles        MaxIter  .... 300

Convergence Tolerances:
Energy Change            TolE     ....  5.0000e-06 Eh
Max. Gradient            TolMAXG  ....  3.0000e-04 Eh/bohr
RMS Gradient             TolRMSG  ....  1.0000e-04 Eh/bohr
Max. Displacement        TolMAXD  ....  4.0000e-03 bohr
RMS Displacement         TolRMSD  ....  2.0000e-03 bohr
Strict Convergence                .... False

------------------------------------------------------------------------------
                        ORCA OPTIMIZATION COORDINATE SETUP
------------------------------------------------------------------------------

The optimization will be done in redundant internal coordinates (2022)
Making redundant internal coordinates   ...  (2022 redundants) done
Evaluating the initial hessian          ...  (Almloef) done
Evaluating the coordinates              ...  done
Calculating the B-matrix                .... done
Calculating the G-matrix                .... done
The number of degrees of freedom        ....  390

    -----------------------------------------------------------------
                    Redundant Internal Coordinates


    -----------------------------------------------------------------
         Definition                    Initial Value    Approx d2E/dq
    -----------------------------------------------------------------
      1. B(B   1,B   0)                  1.8000         0.185885   
      2. B(B   2,B   0)                  1.8000         0.185885   
      3. B(B   2,B   1)                  1.8000         0.185885   
      4. B(B   3,B   1)                  1.8000         0.185885   
      5. B(B   4,B   2)                  1.8000         0.185885   
      6. B(B   5,B   0)                  1.8000         0.185885   
      7. B(B   6,B   5)                  1.8000         0.185885   
      8. B(B   6,B   4)                  1.8000         0.185885   
      9. B(B   6,B   2)                  1.8000         0.185885   
     10. B(B   6,B   0)                  1.8000         0.185885   
     11. B(B   7,B   5)                  1.8000         0.185885   
     12. B(B   7,B   3)                  1.8000         0.185885   
     13. B(B   7,B   1)                  1.8000         0.185885   
     14. B(B   7,B   0)                  1.8000         0.185885   
     15. B(B   8,B   1)                  1.8000         0.185885   
     16. B(B   8,B   4)                  1.8000         0.185885   
     17. B(B   8,B   3)                  1.8000         0.185885   
     18. B(B   8,B   2)                  1.8000         0.185885   
     19. B(B   9,B   8)                  1.8000         0.185885   
     20. B(B   9,B   4)                  1.8000         0.185885   
     21. B(B   9,B   3)                  1.8000         0.185885   
     22. B(B  10,B   9)                  1.8000         0.185885   
     23. B(B  10,B   6)                  1.8000         0.185885   
     24. B(B  10,B   5)                  1.8000         0.185885   
     25. B(B  10,B   4)                  1.8000         0.185885   
     26. B(B  11,B  10)                  1.8000         0.185885   
     27. B(B  11,B   9)                  1.8000         0.185885   
     28. B(B  11,B   7)                  1.8000         0.185885   
     29. B(B  11,B   5)                  1.8000         0.185885   
     30. B(B  11,B   3)                  1.8000         0.185885   
     31. A(B   1,B   0,B   6)          108.0000         0.297719   
     32. A(B   1,B   0,B   5)          108.0000         0.297719   
     33. A(B   1,B   0,B   2)           60.0000         0.297719   
     34. A(B   2,B   0,B   5)          108.0000         0.297719   
     35. A(B   2,B   0,B   7)          108.0000         0.297719   
     36. A(B   5,B   0,B   6)           60.0000         0.297719   
     37. A(B   2,B   0,B   6)           60.0000         0.297719   
     38. A(B   5,B   0,B   7)           60.0000         0.297719   
     39. A(B   6,B   0,B   7)          108.0000         0.297719   
     40. A(B   1,B   0,B   7)           60.0000         0.297719   
     41. A(B   0,B   1,B   3)          108.0000         0.297719   
     42. A(B   7,B   1,B   8)          108.0000         0.297719   
     43. A(B   2,B   1,B   8)           60.0000         0.297719   
     44. A(B   0,B   1,B   8)          108.0000         0.297719   
     45. A(B   0,B   1,B   2)           60.0000         0.297719   
     46. A(B   2,B   1,B   7)          108.0000         0.297719   
     47. A(B   2,B   1,B   3)          108.0000         0.297719   
     48. A(B   3,B   1,B   7)           60.0000         0.297719   
     49. A(B   0,B   1,B   7)           60.0000         0.297719   
     50. A(B   3,B   1,B   8)           60.0000         0.297719   
     51. A(B   0,B   2,B   6)           60.0000         0.297719   
     52. A(B   0,B   2,B   1)           60.0000         0.297719   
     53. A(B   6,B   2,B   8)          108.0000         0.297719   
     54. A(B   4,B   2,B   8)           60.0000         0.297719   
     55. A(B   0,B   2,B   4)          108.0000         0.297719   
     56. A(B   0,B   2,B   8)          108.0000         0.297719   
     57. A(B   1,B   2,B   6)          108.0000         0.297719   
     58. A(B   1,B   2,B   8)           60.0000         0.297719   
     59. A(B   4,B   2,B   6)           60.0000         0.297719   
     60. A(B   1,B   2,B   4)          108.0000         0.297719   
     61. A(B   1,B   3,B   9)          108.0000         0.297719   
     62. A(B   7,B   3,B   9)          108.0000         0.297719   
     63. A(B   9,B   3,B  11)           60.0000         0.297719   
     64. A(B   8,B   3,B  11)          108.0000         0.297719   
     65. A(B   7,B   3,B  11)           60.0000         0.297719   
     66. A(B   1,B   3,B  11)          108.0000         0.297719   
     67. A(B   1,B   3,B   8)           60.0000         0.297719   
     68. A(B   8,B   3,B   9)           60.0000         0.297719   
     69. A(B   7,B   3,B   8)          108.0000         0.297719   
     70. A(B   1,B   3,B   7)           60.0000         0.297719   
     71. A(B   6,B   4,B   9)          108.0000         0.297719   
     72. A(B   2,B   4,B   9)          108.0000         0.297719   
     73. A(B   9,B   4,B  10)           60.0000         0.297719   
     74. A(B   8,B   4,B  10)          108.0000         0.297719   
     75. A(B   2,B   4,B   8)           60.0000         0.297719   
     76. A(B   6,B   4,B   8)          108.0000         0.297719   
     77. A(B   8,B   4,B   9)           60.0000         0.297719   
     78. A(B   6,B   4,B  10)           60.0000         0.297719   
     79. A(B   2,B   4,B  10)          108.0000         0.297719   
     80. A(B   2,B   4,B   6)           60.0000         0.297719   
     81. A(B  10,B   5,B  11)           60.0000         0.297719   
     82. A(B   7,B   5,B  11)           60.0000         0.297719   
     83. A(B   6,B   5,B  11)          108.0000         0.297719   
     84. A(B   0,B   5,B  11)          108.0000         0.297719   
     85. A(B   0,B   5,B   6)           60.0000         0.297719   
     86. A(B   6,B   5,B  10)           60.0000         0.297719   
     87. A(B   0,B   5,B  10)          108.0000         0.297719   
     88. A(B   6,B   5,B   7)          108.0000         0.297719   
     89. A(B   0,B   5,B   7)           60.0000         0.297719   
     90. A(B   7,B   5,B  10)          108.0000         0.297719   
     91. A(B   4,B   6,B   5)          108.0000         0.297719   
     92. A(B   2,B   6,B   5)          108.0000         0.297719   
     93. A(B   0,B   6,B   5)           60.0000         0.297719   
     94. A(B   5,B   6,B  10)           60.0000         0.297719   
     95. A(B   4,B   6,B  10)           60.0000         0.297719   
     96. A(B   2,B   6,B  10)          108.0000         0.297719   
     97. A(B   2,B   6,B   4)           60.0000         0.297719   
     98. A(B   0,B   6,B  10)          108.0000         0.297719   
     99. A(B   0,B   6,B   4)          108.0000         0.297719   
    100. A(B   0,B   6,B   2)           60.0000         0.297719   
    101. A(B   0,B   7,B   1)           60.0000         0.297719   
    102. A(B   5,B   7,B  11)           60.0000         0.297719   
    103. A(B   3,B   7,B  11)           60.0000         0.297719   
    104. A(B   0,B   7,B  11)          108.0000         0.297719   
    105. A(B   3,B   7,B   5)          108.0000         0.297719   
    106. A(B   1,B   7,B   5)          108.0000         0.297719   
    107. A(B   0,B   7,B   5)           60.0000         0.297719   
    108. A(B   1,B   7,B   3)           60.0000         0.297719   
    109. A(B   1,B   7,B  11)          108.0000         0.297719   
    110. A(B   0,B   7,B   3)          108.0000         0.297719   
    111. A(B   3,B   8,B   4)          108.0000         0.297719   
    112. A(B   2,B   8,B   4)           60.0000         0.297719   
    113. A(B   1,B   8,B   4)          108.0000         0.297719   
    114. A(B   2,B   8,B   3)          108.0000         0.297719   
    115. A(B   1,B   8,B   3)           60.0000         0.297719   
    116. A(B   1,B   8,B   2)           60.0000         0.297719   
    117. A(B   4,B   8,B   9)           60.0000         0.297719   
    118. A(B   3,B   8,B   9)           60.0000         0.297719   
    119. A(B   2,B   8,B   9)          108.0000         0.297719   
    120. A(B   1,B   8,B   9)          108.0000         0.297719   
    121. A(B  10,B   9,B  11)           60.0000         0.297719   
    122. A(B   8,B   9,B  11)          108.0000         0.297719   
    123. A(B   4,B   9,B  11)          108.0000         0.297719   
    124. A(B   3,B   9,B  11)           60.0000         0.297719   
    125. A(B   8,B   9,B  10)          108.0000         0.297719   
    126. A(B   4,B   9,B  10)           60.0000         0.297719   
    127. A(B   3,B   9,B  10)          108.0000         0.297719   
    128. A(B   4,B   9,B   8)           60.0000         0.297719   
    129. A(B   3,B   9,B   8)           60.0000         0.297719   
    130. A(B   3,B   9,B   4)          108.0000         0.297719   
    131. A(B   9,B  10,B  11)           60.0000         0.297719   
    132. A(B   5,B  10,B  11)           60.0000         0.297719   
    133. A(B   4,B  10,B  11)          108.0000         0.297719   
    134. A(B   6,B  10,B  11)          108.0000         0.297719   
    135. A(B   6,B  10,B   9)          108.0000         0.297719   
    136. A(B   5,B  10,B   9)          108.0000         0.297719   
    137. A(B   4,B  10,B   9)           60.0000         0.297719   
    138. A(B   5,B  10,B   6)           60.0000         0.297719   
    139. A(B   4,B  10,B   6)           60.0000         0.297719   
    140. A(B   4,B  10,B   5)          108.0000         0.297719   
    141. A(B   9,B  11,B  10)           60.0000         0.297719   
    142. A(B   7,B  11,B  10)          108.0000         0.297719   
    143. A(B   5,B  11,B  10)           60.0000         0.297719   
    144. A(B   3,B  11,B  10)          108.0000         0.297719   
    145. A(B   7,B  11,B   9)          108.0000         0.297719   
    146. A(B   5,B  11,B   9)          108.0000         0.297719   
    147. A(B   3,B  11,B   9)           60.0000         0.297719   
    148. A(B   5,B  11,B   7)           60.0000         0.297719   
    149. A(B   3,B  11,B   7)           60.0000         0.297719   
    150. A(B   3,B  11,B   5)          108.0000         0.297719   
    151. D(B   7,B   1,B   0,B   2)   -138.1897         0.010000   
    152. D(B   2,B   1,B   0,B   5)    100.8123         0.010000   
    153. D(B   3,B   1,B   0,B   7)     37.3774         0.010000   
    154. D(B   3,B   1,B   0,B   5)      0.0000         0.010000   
    155. D(B   2,B   1,B   0,B   6)     37.3774         0.010000   
    156. D(B   3,B   1,B   0,B   6)    -63.4349         0.010000   
    157. D(B   3,B   1,B   0,B   2)   -100.8123         0.010000   
    158. D(B   2,B   1,B   0,B   7)    138.1897         0.010000   
    159. D(B   6,B   2,B   0,B   1)    138.1897         0.010000   
    160. D(B   0,B   2,B   1,B   7)     37.3774         0.010000   
    161. D(B   0,B   2,B   1,B   8)    138.1897         0.010000   
    162. D(B   1,B   2,B   0,B   6)   -138.1897         0.010000   
    163. D(B   4,B   2,B   1,B   3)      0.0000         0.010000   
    164. D(B   4,B   2,B   1,B   0)   -100.8123         0.010000   
    165. D(B   4,B   2,B   0,B   6)    -37.3774         0.010000   
    166. D(B   1,B   2,B   0,B   7)    -37.3774         0.010000   
    167. D(B   1,B   2,B   0,B   5)   -100.8123         0.010000   
    168. D(B   6,B   2,B   1,B   0)    -37.3774         0.010000   
    169. D(B   0,B   2,B   1,B   3)    100.8123         0.010000   
    170. D(B   4,B   2,B   0,B   7)     63.4349         0.010000   
    171. D(B   4,B   2,B   0,B   5)      0.0000         0.010000   
    172. D(B   4,B   2,B   1,B   8)     37.3774         0.010000   
    173. D(B   4,B   2,B   0,B   1)    100.8123         0.010000   
    174. D(B   4,B   2,B   1,B   7)    -63.4349         0.010000   
    175. D(B   8,B   3,B   1,B   7)    138.1897         0.010000   
    176. D(B   7,B   3,B   1,B   2)   -100.8123         0.010000   
    177. D(B   9,B   3,B   1,B   0)     63.4349         0.010000   
    178. D(B   7,B   3,B   1,B   0)    -37.3774         0.010000   
    179. D(B   8,B   3,B   1,B   2)     37.3774         0.010000   
    180. D(B   7,B   3,B   1,B   8)   -138.1897         0.010000   
    181. D(B   8,B   3,B   1,B   0)    100.8123         0.010000   
    182. D(B   9,B   3,B   1,B   2)     -0.0000         0.010000   
    183. D(B   8,B   4,B   2,B   6)   -138.1897         0.010000   
    184. D(B   9,B   4,B   2,B   0)    -63.4349         0.010000   
    185. D(B   6,B   4,B   2,B   0)     37.3774         0.010000   
    186. D(B   8,B   4,B   2,B   0)   -100.8123         0.010000   
    187. D(B   6,B   4,B   2,B   1)    100.8123         0.010000   
    188. D(B   9,B   4,B   2,B   1)     -0.0000         0.010000   
    189. D(B   6,B   4,B   2,B   8)    138.1897         0.010000   
    190. D(B   8,B   4,B   2,B   1)    -37.3774         0.010000   
    191. D(B   6,B   5,B   0,B   7)   -138.1897         0.010000   
    192. D(B   7,B   5,B   0,B   2)    100.8123         0.010000   
    193. D(B   7,B   5,B   0,B   6)    138.1897         0.010000   
    194. D(B  10,B   5,B   0,B   1)    -63.4349         0.010000   
    195. D(B  10,B   5,B   0,B   2)     -0.0000         0.010000   
    196. D(B   7,B   5,B   0,B   1)     37.3774         0.010000   
    197. D(B   6,B   5,B   0,B   2)    -37.3774         0.010000   
    198. D(B   6,B   5,B   0,B   1)   -100.8123         0.010000   
    199. D(B   4,B   6,B   2,B   0)   -138.1897         0.010000   
    200. D(B   0,B   6,B   2,B   4)    138.1897         0.010000   
    201. D(B   4,B   6,B   0,B   2)     37.3774         0.010000   
    202. D(B   2,B   6,B   0,B   7)   -100.8123         0.010000   
    203. D(B   4,B   6,B   2,B   1)   -100.8123         0.010000   
    204. D(B   5,B   6,B   0,B   1)    100.8123         0.010000   
    205. D(B   4,B   6,B   0,B   7)    -63.4349         0.010000   
    206. D(B   4,B   6,B   0,B   1)      0.0000         0.010000   
    207. D(B   0,B   6,B   2,B   1)     37.3774         0.010000   
    208. D(B   2,B   6,B   0,B   5)   -138.1897         0.010000   
    209. D(B   4,B   6,B   2,B   8)    -37.3774         0.010000   
    210. D(B   0,B   6,B   2,B   8)    100.8123         0.010000   
    211. D(B   4,B   6,B   0,B   5)   -100.8123         0.010000   
    212. D(B   2,B   6,B   0,B   1)    -37.3774         0.010000   
    213. D(B   4,B   6,B   5,B   0)    100.8123         0.010000   
    214. D(B   5,B   6,B   2,B   0)    -37.3774         0.010000   
    215. D(B   2,B   6,B   5,B  10)   -100.8123         0.010000   
    216. D(B   2,B   6,B   5,B   7)      0.0000         0.010000   
    217. D(B   2,B   6,B   5,B   0)     37.3774         0.010000   
    218. D(B   0,B   6,B   5,B  10)   -138.1897         0.010000   
    219. D(B   0,B   6,B   5,B   7)    -37.3774         0.010000   
    220. D(B   5,B   6,B   4,B   2)   -100.8123         0.010000   
    221. D(B   0,B   6,B   4,B   9)     63.4349         0.010000   
    222. D(B   2,B   6,B   4,B   8)     37.3774         0.010000   
    223. D(B   0,B   6,B   4,B  10)    100.8123         0.010000   
    224. D(B   0,B   6,B   5,B  11)   -100.8123         0.010000   
    225. D(B   2,B   6,B   4,B  10)    138.1897         0.010000   
    226. D(B   0,B   6,B   4,B   8)     -0.0000         0.010000   
    227. D(B   0,B   6,B   4,B   2)    -37.3774         0.010000   
    228. D(B   2,B   6,B   5,B  11)    -63.4349         0.010000   
    229. D(B   5,B   6,B   2,B   1)     -0.0000         0.010000   
    230. D(B   2,B   6,B   4,B   9)    100.8123         0.010000   
    231. D(B   3,B   7,B   5,B   0)   -100.8123         0.010000   
    232. D(B   1,B   7,B   5,B  10)     63.4349         0.010000   
    233. D(B   1,B   7,B   5,B   6)     -0.0000         0.010000   
    234. D(B   1,B   7,B   5,B   0)    -37.3774         0.010000   
    235. D(B   0,B   7,B   5,B  10)    100.8123         0.010000   
    236. D(B   0,B   7,B   5,B   6)     37.3774         0.010000   
    237. D(B   5,B   7,B   3,B   1)    100.8123         0.010000   
    238. D(B   1,B   7,B   3,B   9)   -100.8123         0.010000   
    239. D(B   1,B   7,B   3,B   8)    -37.3774         0.010000   
    240. D(B   0,B   7,B   3,B  11)   -100.8123         0.010000   
    241. D(B   0,B   7,B   3,B   1)     37.3774         0.010000   
    242. D(B   5,B   7,B   1,B   2)      0.0000         0.010000   
    243. D(B   0,B   7,B   1,B   8)   -100.8123         0.010000   
    244. D(B   3,B   7,B   1,B   2)    100.8123         0.010000   
    245. D(B   3,B   7,B   1,B   0)    138.1897         0.010000   
    246. D(B   5,B   7,B   1,B   0)     37.3774         0.010000   
    247. D(B   0,B   7,B   1,B   3)   -138.1897         0.010000   
    248. D(B   0,B   7,B   1,B   2)    -37.3774         0.010000   
    249. D(B   5,B   7,B   0,B   1)   -138.1897         0.010000   
    250. D(B   3,B   7,B   1,B   8)     37.3774         0.010000   
    251. D(B   3,B   7,B   0,B   6)     63.4349         0.010000   
    252. D(B   1,B   7,B   3,B  11)   -138.1897         0.010000   
    253. D(B   3,B   7,B   0,B   5)    100.8123         0.010000   
    254. D(B   0,B   7,B   3,B   9)    -63.4349         0.010000   
    255. D(B   3,B   7,B   0,B   2)     -0.0000         0.010000   
    256. D(B   0,B   7,B   5,B  11)    138.1897         0.010000   
    257. D(B   3,B   7,B   0,B   1)    -37.3774         0.010000   
    258. D(B   1,B   7,B   0,B   2)     37.3774         0.010000   
    259. D(B   1,B   7,B   5,B  11)    100.8123         0.010000   
    260. D(B   1,B   7,B   0,B   5)    138.1897         0.010000   
    261. D(B   0,B   7,B   3,B   8)      0.0000         0.010000   
    262. D(B   1,B   7,B   0,B   6)    100.8123         0.010000   
    263. D(B   3,B   8,B   2,B   4)   -100.8123         0.010000   
    264. D(B   3,B   8,B   2,B   1)     37.3774         0.010000   
    265. D(B   3,B   8,B   2,B   0)      0.0000         0.010000   
    266. D(B   1,B   8,B   2,B   4)   -138.1897         0.010000   
    267. D(B   1,B   8,B   2,B   0)    -37.3774         0.010000   
    268. D(B   4,B   8,B   1,B   2)    -37.3774         0.010000   
    269. D(B   3,B   8,B   1,B   0)   -100.8123         0.010000   
    270. D(B   2,B   8,B   1,B   0)     37.3774         0.010000   
    271. D(B   2,B   8,B   1,B   7)    100.8123         0.010000   
    272. D(B   1,B   8,B   2,B   6)   -100.8123         0.010000   
    273. D(B   2,B   8,B   1,B   3)    138.1897         0.010000   
    274. D(B   3,B   8,B   1,B   2)   -138.1897         0.010000   
    275. D(B   4,B   8,B   1,B   0)     -0.0000         0.010000   
    276. D(B   3,B   8,B   2,B   6)    -63.4349         0.010000   
    277. D(B   3,B   8,B   1,B   7)    -37.3774         0.010000   
    278. D(B   3,B   8,B   4,B   2)    100.8123         0.010000   
    279. D(B   2,B   8,B   4,B   9)   -138.1897         0.010000   
    280. D(B   2,B   8,B   4,B   6)    -37.3774         0.010000   
    281. D(B   1,B   8,B   4,B  10)    -63.4349         0.010000   
    282. D(B   1,B   8,B   4,B   6)      0.0000         0.010000   
    283. D(B   1,B   8,B   4,B   2)     37.3774         0.010000   
    284. D(B   4,B   8,B   3,B   1)   -100.8123         0.010000   
    285. D(B   2,B   8,B   3,B  11)     63.4349         0.010000   
    286. D(B   2,B   8,B   3,B   9)    100.8123         0.010000   
    287. D(B   2,B   8,B   3,B   7)     -0.0000         0.010000   
    288. D(B   1,B   8,B   4,B   9)   -100.8123         0.010000   
    289. D(B   2,B   8,B   3,B   1)    -37.3774         0.010000   
    290. D(B   1,B   8,B   3,B  11)    100.8123         0.010000   
    291. D(B   1,B   8,B   3,B   9)    138.1897         0.010000   
    292. D(B   2,B   8,B   4,B  10)   -100.8123         0.010000   
    293. D(B   1,B   8,B   3,B   7)     37.3774         0.010000   
    294. D(B   4,B   8,B   2,B   0)    100.8123         0.010000   
    295. D(B  10,B   9,B   8,B   2)      0.0000         0.010000   
    296. D(B   4,B   9,B   8,B   3)    138.1897         0.010000   
    297. D(B   4,B   9,B   8,B   2)     37.3774         0.010000   
    298. D(B   4,B   9,B   8,B   1)    100.8123         0.010000   
    299. D(B   3,B   9,B   8,B   4)   -138.1897         0.010000   
    300. D(B   3,B   9,B   8,B   2)   -100.8123         0.010000   
    301. D(B   3,B   9,B   8,B   1)    -37.3774         0.010000   
    302. D(B  10,B   9,B   4,B   2)    100.8123         0.010000   
    303. D(B   8,B   9,B   4,B  10)   -138.1897         0.010000   
    304. D(B   8,B   9,B   4,B   6)   -100.8123         0.010000   
    305. D(B   8,B   9,B   4,B   2)    -37.3774         0.010000   
    306. D(B   3,B   9,B   4,B  10)   -100.8123         0.010000   
    307. D(B   3,B   9,B   4,B   8)     37.3774         0.010000   
    308. D(B   3,B   9,B   4,B   6)    -63.4349         0.010000   
    309. D(B   3,B   9,B   4,B   2)      0.0000         0.010000   
    310. D(B  10,B   9,B   3,B   1)    -63.4349         0.010000   
    311. D(B   8,B   9,B   3,B  11)    138.1897         0.010000   
    312. D(B   8,B   9,B   3,B   7)    100.8123         0.010000   
    313. D(B   8,B   9,B   3,B   1)     37.3774         0.010000   
    314. D(B   4,B   9,B   3,B  11)    100.8123         0.010000   
    315. D(B   4,B   9,B   3,B   8)    -37.3774         0.010000   
    316. D(B  10,B   9,B   8,B   1)     63.4349         0.010000   
    317. D(B   4,B   9,B   3,B   7)     63.4349         0.010000   
    318. D(B   4,B   9,B   3,B   1)      0.0000         0.010000   
    319. D(B   6,B  10,B   9,B   3)     63.4349         0.010000   
    320. D(B   5,B  10,B   9,B   8)    -63.4349         0.010000   
    321. D(B   5,B  10,B   9,B   4)   -100.8123         0.010000   
    322. D(B   5,B  10,B   9,B   3)     -0.0000         0.010000   
    323. D(B   4,B  10,B   9,B  11)    138.1897         0.010000   
    324. D(B   4,B  10,B   9,B   8)     37.3774         0.010000   
    325. D(B   4,B  10,B   9,B   3)    100.8123         0.010000   
    326. D(B   9,B  10,B   6,B   2)      0.0000         0.010000   
    327. D(B   5,B  10,B   6,B   4)    138.1897         0.010000   
    328. D(B   5,B  10,B   6,B   2)    100.8123         0.010000   
    329. D(B   5,B  10,B   6,B   0)     37.3774         0.010000   
    330. D(B   4,B  10,B   6,B   2)    -37.3774         0.010000   
    331. D(B   4,B  10,B   6,B   0)   -100.8123         0.010000   
    332. D(B   9,B  10,B   5,B   0)     63.4349         0.010000   
    333. D(B   6,B  10,B   5,B  11)   -138.1897         0.010000   
    334. D(B   6,B  10,B   5,B   7)   -100.8123         0.010000   
    335. D(B   6,B  10,B   5,B   0)    -37.3774         0.010000   
    336. D(B   4,B  10,B   6,B   5)   -138.1897         0.010000   
    337. D(B   4,B  10,B   5,B  11)   -100.8123         0.010000   
    338. D(B   4,B  10,B   5,B   7)    -63.4349         0.010000   
    339. D(B   4,B  10,B   5,B   6)     37.3774         0.010000   
    340. D(B   9,B  10,B   6,B   0)    -63.4349         0.010000   
    341. D(B   4,B  10,B   5,B   0)      0.0000         0.010000   
    342. D(B   9,B  10,B   4,B   2)   -100.8123         0.010000   
    343. D(B   6,B  10,B   4,B   9)    138.1897         0.010000   
    344. D(B   6,B  10,B   4,B   8)    100.8123         0.010000   
    345. D(B   6,B  10,B   4,B   2)     37.3774         0.010000   
    346. D(B   5,B  10,B   4,B   9)    100.8123         0.010000   
    347. D(B   5,B  10,B   4,B   8)     63.4349         0.010000   
    348. D(B   5,B  10,B   9,B  11)     37.3774         0.010000   
    349. D(B   5,B  10,B   4,B   6)    -37.3774         0.010000   
    350. D(B   5,B  10,B   4,B   2)      0.0000         0.010000   
    351. D(B   7,B  11,B  10,B   4)     63.4349         0.010000   
    352. D(B   5,B  11,B  10,B   6)     37.3774         0.010000   
    353. D(B   5,B  11,B  10,B   4)    100.8123         0.010000   
    354. D(B   3,B  11,B  10,B   9)     37.3774         0.010000   
    355. D(B   3,B  11,B  10,B   5)   -100.8123         0.010000   
    356. D(B   3,B  11,B  10,B   4)     -0.0000         0.010000   
    357. D(B   7,B  11,B   9,B   3)     37.3774         0.010000   
    358. D(B   5,B  11,B   9,B   8)     63.4349         0.010000   
    359. D(B   5,B  11,B   9,B   4)     -0.0000         0.010000   
    360. D(B   5,B  11,B   9,B   3)    100.8123         0.010000   
    361. D(B   3,B  11,B   9,B  10)   -138.1897         0.010000   
    362. D(B   3,B  11,B   9,B   8)    -37.3774         0.010000   
    363. D(B   3,B  11,B   9,B   4)   -100.8123         0.010000   
    364. D(B   9,B  11,B   7,B   1)      0.0000         0.010000   
    365. D(B   5,B  11,B   7,B   3)   -138.1897         0.010000   
    366. D(B   5,B  11,B   7,B   1)   -100.8123         0.010000   
    367. D(B   5,B  11,B   7,B   0)    -37.3774         0.010000   
    368. D(B   3,B  11,B   7,B   5)    138.1897         0.010000   
    369. D(B   3,B  11,B   7,B   1)     37.3774         0.010000   
    370. D(B   3,B  11,B   7,B   0)    100.8123         0.010000   
    371. D(B   9,B  11,B   5,B   0)    -63.4349         0.010000   
    372. D(B   9,B  11,B   7,B   0)     63.4349         0.010000   
    373. D(B   7,B  11,B   5,B  10)    138.1897         0.010000   
    374. D(B   7,B  11,B   5,B   6)    100.8123         0.010000   
    375. D(B   7,B  11,B   5,B   0)     37.3774         0.010000   
    376. D(B   3,B  11,B   5,B  10)    100.8123         0.010000   
    377. D(B   3,B  11,B   5,B   7)    -37.3774         0.010000   
    378. D(B   3,B  11,B   5,B   6)     63.4349         0.010000   
    379. D(B   3,B  11,B   5,B   0)      0.0000         0.010000   
    380. D(B   5,B  11,B   9,B  10)    -37.3774         0.010000   
    381. D(B   9,B  11,B   3,B   1)    100.8123         0.010000   
    382. D(B   7,B  11,B   3,B   9)   -138.1897         0.010000   
    383. D(B   7,B  11,B   3,B   8)   -100.8123         0.010000   
    384. D(B   3,B  11,B  10,B   6)    -63.4349         0.010000   
    385. D(B   7,B  11,B   3,B   1)    -37.3774         0.010000   
    386. D(B   5,B  11,B   3,B   9)   -100.8123         0.010000   
    387. D(B   5,B  11,B   3,B   8)    -63.4349         0.010000   
    388. D(B   5,B  11,B  10,B   9)    138.1897         0.010000   
    389. D(B   5,B  11,B   3,B   7)     37.3774         0.010000   
    390. D(B   5,B  11,B   3,B   1)      0.0000         0.010000   
    -----------------------------------------------------------------

Number of atoms                         .... 12
Number of degrees of freedom            .... 390


         *************************************************************
         *                GEOMETRY OPTIMIZATION CYCLE   1            *
         *************************************************************
---------------------------------
CARTESIAN COORDINATES (ANGSTROEM)
---------------------------------
  B      0.000000   -0.900000   -1.456231
  B     -0.900000   -1.456231    0.000000
  B     -1.456231    0.000000   -0.900000
  B      0.000000   -0.900000    1.456231
  B     -0.900000    1.456231    0.000000
  B      1.456231    0.000000   -0.900000
  B      0.000000    0.900000   -1.456231
  B      0.900000   -1.456231    0.000000
  B     -1.456231    0.000000    0.900000
  B      0.000000    0.900000    1.456231
  B      0.900000    1.456231    0.000000
  B      1.456231    0.000000    0.900000

----------------------------
CARTESIAN COORDINATES (A.U.)
----------------------------
  NO LB      ZA    FRAG     MASS         X           Y           Z
   0 B     5.0000    0    10.810    0.000000   -1.700754   -2.751877
   1 B     5.0000    0    10.810   -1.700754   -2.751877    0.000000
   2 B     5.0000    0    10.810   -2.751877    0.000000   -1.700754
   3 B     5.0000    0    10.810    0.000000   -1.700754    2.751877
   4 B     5.0000    0    10.810   -1.700754    2.751877    0.000000
   5 B     5.0000    0    10.810    2.751877    0.000000   -1.700754
   6 B     5.0000    0    10.810    0.000000    1.700754   -2.751877
   7 B     5.0000    0    10.810    1.700754   -2.751877    0.000000
   8 B     5.0000    0    10.810   -2.751877    0.000000    1.700754
   9 B     5.0000    0    10.810    0.000000    1.700754    2.751877
  10 B     5.0000    0    10.810    1.700754    2.751877    0.000000
  11 B     5.0000    0    10.810    2.751877    0.000000    1.700754

--------------------------------
INTERNAL COORDINATES (ANGSTROEM)
--------------------------------
 B      0   0   0     0.000000000000     0.00000000     0.00000000
 B      1   0   0     1.800000000140     0.00000000     0.00000000
 B      1   2   0     1.800000000140    60.00000000     0.00000000
 B      2   1   3     1.800000000140   108.00000000   259.18768304
 B      3   1   2     1.800000000140   108.00000000   100.81231697
 B      1   2   3     1.800000000140   108.00000000   100.81231697
 B      1   2   3     1.800000000000   108.00000000    37.37736814
 B      2   1   3     1.800000000000    60.00000000   221.81031489
 B      3   1   2     1.800000000000   108.00000000    37.37736814
 B      4   2   1     1.800000000000   108.00000000    63.43494882
 B      5   3   1     1.800000000000   108.00000000     0.00000000
 B      6   1   2     1.800000000000   108.00000000     0.00000000

---------------------------
INTERNAL COORDINATES (A.U.)
---------------------------
 B      0   0   0     0.000000000000     0.00000000     0.00000000
 B      1   0   0     3.401507041323     0.00000000     0.00000000
 B      1   2   0     3.401507041323    60.00000000     0.00000000
 B      2   1   3     3.401507041323   108.00000000   259.18768304
 B      3   1   2     3.401507041323   108.00000000   100.81231697
 B      1   2   3     3.401507041323   108.00000000   100.81231697
 B      1   2   3     3.401507041058   108.00000000    37.37736814
 B      2   1   3     3.401507041058    60.00000000   221.81031489
 B      3   1   2     3.401507041058   108.00000000    37.37736814
 B      4   2   1     3.401507041058   108.00000000    63.43494882
 B      5   3   1     3.401507041058   108.00000000     0.00000000
 B      6   1   2     3.401507041058   108.00000000     0.00000000

---------------------
BASIS SET INFORMATION
---------------------
There are 1 groups of distinct atoms

 Group   1 Type B   : 7s4p1d contracted to 3s2p1d pattern {511/31/1}

Atom   0B    basis set group =>   1
Atom   1B    basis set group =>   1
Atom   2B    basis set group =>   1
Atom   3B    basis set group =>   1
Atom   4B    basis set group =>   1
Atom   5B    basis set group =>   1
Atom   6B    basis set group =>   1
Atom   7B    basis set group =>   1
Atom   8B    basis set group =>   1
Atom   9B    basis set group =>   1
Atom  10B    basis set group =>   1
Atom  11B    basis set group =>   1
---------------------------------
AUXILIARY/J BASIS SET INFORMATION
---------------------------------
There are 1 groups of distinct atoms

 Group   1 Type B   : 12s5p4d2f1g contracted to 6s4p3d1f1g pattern {711111/2111/211/2/1}

Atom   0B    basis set group =>   1
Atom   1B    basis set group =>   1
Atom   2B    basis set group =>   1
Atom   3B    basis set group =>   1
Atom   4B    basis set group =>   1
Atom   5B    basis set group =>   1
Atom   6B    basis set group =>   1
Atom   7B    basis set group =>   1
Atom   8B    basis set group =>   1
Atom   9B    basis set group =>   1
Atom  10B    basis set group =>   1
Atom  11B    basis set group =>   1


           ************************************************************
           *        Program running with 8 parallel MPI-processes     *
           *              working on a common directory               *
           ************************************************************
------------------------------------------------------------------------------
                             ORCA STARTUP CALCULATIONS
                           -- RI-GTO INTEGRALS CHOSEN --
------------------------------------------------------------------------------
------------------------------------------------------------------------------
                   ___                                                        
                  /   \      - P O W E R E D   B Y -                         
                 /     \                                                     
                 |  |  |   _    _      __       _____    __    __             
                 |  |  |  | |  | |    /  \     |  _  \  |  |  /  |          
                  \  \/   | |  | |   /    \    | | | |  |  | /  /          
                 / \  \   | |__| |  /  /\  \   | |_| |  |  |/  /          
                |  |  |   |  __  | /  /__\  \  |    /   |      \           
                |  |  |   | |  | | |   __   |  |    \   |  |\   \          
                \     /   | |  | | |  |  |  |  | |\  \  |  | \   \       
                 \___/    |_|  |_| |__|  |__|  |_| \__\ |__|  \__/        
                                                                              
                      - O R C A' S   B I G   F R I E N D -                    
                                      &                                       
                       - I N T E G R A L  F E E D E R -                       
                                                                              
 v1 FN, 2020, v2 2021, v3 2022-2024                                           
------------------------------------------------------------------------------


----------------------
SHARK INTEGRAL PACKAGE
----------------------

Number of atoms                             ...     12
Number of basis functions                   ...    168
Number of shells                            ...     72
Maximum angular momentum                    ...      2
Integral batch strategy                     ... SHARK/LIBINT Hybrid
RI-J (if used) integral strategy            ... SPLIT-RIJ (Revised 2003 algorithm where possible)
Printlevel                                  ...      1
Contraction scheme used                     ... SEGMENTED contraction
Prescreening option                         ... SCHWARTZ
   Thresh                                   ... 2.500e-11
   Tcut                                     ... 2.500e-12
   Tpresel                                  ... 2.500e-12 
Coulomb Range Separation                    ... NOT USED
Exchange Range Separation                   ... NOT USED
Multipole approximations                    ... NOT USED
Finite Nucleus Model                        ... NOT USED
CABS basis                                  ... NOT available
Auxiliary Coulomb fitting basis             ... AVAILABLE
   # of basis functions in Aux-J            ...    588
   # of shells in Aux-J                     ...    180
   Maximum angular momentum in Aux-J        ...      4
Auxiliary J/K fitting basis                 ... NOT available
Auxiliary Correlation fitting basis         ... NOT available
Auxiliary 'external' fitting basis          ... NOT available

Checking pre-screening integrals            ... done (  0.0 sec) Dimension = 72
   => SHARK Basis and OBASIS are compatible. Storing Pre-screening
Shell pair information
Shell pair cut-off parameter TPreSel        ...   2.5e-12
Total number of shell pairs                 ...      2628
Shell pairs after pre-screening             ...      2592
Total number of primitive shell pairs       ...     10596
Primitive shell pairs kept                  ...      8178
          la=0 lb=0:    630 shell pairs
          la=1 lb=0:    864 shell pairs
          la=1 lb=1:    300 shell pairs
          la=2 lb=0:    432 shell pairs
          la=2 lb=1:    288 shell pairs
          la=2 lb=2:     78 shell pairs

Checking whether 4 symmetric matrices of dimension 168 fit in memory
:Max Core in MB      =   2500.00
 MB in use           =      6.96
 MB left             =   2493.04
 MB needed           =      0.43
 Data fit in memory  = YES
Calculating RI/J V-Matrix + Cholesky decomp.... done (  0.0 sec)
Calculating Nuclear repulsion               ... done (  0.0 sec) ENN=    379.944872287514 Eh

Diagonalization of the overlap matrix:
Smallest eigenvalue                        ... 2.937e-04
Time for diagonalization                   ...    0.003 sec
Threshold for overlap eigenvalues          ... 1.000e-07
Number of eigenvalues below threshold      ... 0
Time for construction of square roots      ...    0.002 sec
Total time needed                          ...    0.008 sec

-------------------
DFT GRID GENERATION
-------------------

General Integration Accuracy     IntAcc      ... 4.388
Radial Grid Type                 RadialGrid  ... OptM3 with GC (2021)
Angular Grid (max. ang.)         AngularGrid ... 4 (Lebedev-302)
Angular grid pruning method      GridPruning ... 4 (adaptive)
Weight generation scheme         WeightScheme... mBecke (2022)
Basis function cutoff            BFCut       ... 1.0000e-11
Integration weight cutoff        WCut        ... 1.0000e-14
Partially contracted basis set               ... off
Rotationally invariant grid construction     ... off
Angular grids for H and He will be reduced by one unit

Total number of grid points                  ...    69828
Total number of batches                      ...     1098
Average number of points per batch           ...       63
Average number of grid points per atom       ...     5819
Grids setup in   1.0 sec
Initializing property integral containers    ... done (  0.0 sec)

SHARK setup successfully completed in   1.2 seconds

Maximum memory used throughout the entire STARTUP-calculation: 19.7 MB


           ************************************************************
           *        Program running with 8 parallel MPI-processes     *
           *              working on a common directory               *
           ************************************************************
-------------------------------------------------------------------------------
                                 ORCA GUESS
                   Start orbitals & Density for SCF / CASSCF
-------------------------------------------------------------------------------

------------
SCF SETTINGS
------------
Hamiltonian:
 Density Functional     Method          .... DFT(GTOs)
 Exchange Functional    Exchange        .... B88
   X-Alpha parameter    XAlpha          ....  0.666667
   Becke's b parameter  XBeta           ....  0.004200
 Correlation Functional Correlation     .... P86
 LDA part of GGA corr.  LDAOpt          .... PW91-LDA
 Gradients option       PostSCFGGA      .... off
   NL short-range parameter             ....  4.400000
 RI-approximation to the Coulomb term is turned on
   Number of AuxJ basis functions       .... 588


General Settings:
 Integral files         IntName         .... icosahedron_nn1.80
 Hartree-Fock type      HFTyp           .... RHF
 Total Charge           Charge          ....    0
 Multiplicity           Mult            ....    1
 Number of Electrons    NEL             ....   60
 Basis Dimension        Dim             ....  168
 Nuclear Repulsion      ENuc            ....    379.9448722875 Eh

Convergence Acceleration:
 AO-DIIS                CNVDIIS         .... on
   Start iteration      DIISMaxIt       ....     0
   Startup error        DIISStart       ....  0.200000
   # of expansion vecs  DIISMaxEq       ....     5
   Bias factor          DIISBfac        ....   1.050
   Max. coefficient     DIISMaxC        ....  10.000
 MO-DIIS                CNVKDIIS        .... off
 Trust-Rad. Augm. Hess. CNVTRAH         .... auto
   Auto Start mean grad. ratio tolernc. ....  1.125000
   Auto Start start iteration           ....    50
   Auto Start num. interpolation iter.  ....    10
   Max. Number of Micro iterations      ....    24
   Max. Number of Macro iterations      .... Maxiter - #DIIS iter
   Number of Davidson start vectors     ....     2
   Converg. threshold    (grad. norm)   ....   1.000e-05
   Grad. Scal. Fac. for Micro threshold ....   0.100
   Minimum threshold for Micro iter.    ....   1.000e-02
   NR start threshold (gradient norm)   ....   1.000e-04
   Initial trust radius                 ....   0.400
   Minimum AH scaling param. (alpha)    ....   1.000
   Maximum AH scaling param. (alpha)    .... 1000.000
   Quad. conv. algorithm                .... NR
   White noise on init. David. guess    .... on
   Maximum white noise                  ....   0.010
   Pseudo random numbers                .... off
   Inactive MOs                         .... canonical
   Orbital update algorithm             .... Taylor
   Preconditioner                       .... Diag
   Full preconditioner red. dimension   ....   250
 SOSCF                 CNVSOSCF           .... on
   Start iteration     SOSCFMaxIt         ....   150
   Startup grad/error  SOSCFStart         ....  0.001000
   Hessian update      SOSCFHessUp        .... L-BFGS
   Autom. constraints  SOSCFAutoConstrain .... off
 Level Shifting         CNVShift        .... on
   Level shift para.    LevelShift      ....    0.2500
   Turn off err/grad.   ShiftErr        ....    0.0000
 Zerner damping         CNVZerner       .... off
 Static damping         CNVDamp         .... on
   Fraction old density DampFac         ....    0.8500
   Max. Damping (<1)    DampMax         ....    0.9800
   Min. Damping (>=0)   DampMin         ....    0.0000
   Turn off err/grad.   DampErr         ....    0.0300

SCF Procedure:
 Maximum # iterations   MaxIter         ....   125
 SCF integral mode      SCFMode         .... Direct
   Integral package                     .... SHARK and LIBINT hybrid scheme
 Reset frequency        DirectResetFreq ....    20
 Integral Threshold     Thresh          ....  2.500e-11 Eh
 Primitive CutOff       TCut            ....  2.500e-12 Eh

Convergence Tolerance:
 Convergence Check Mode ConvCheckMode   .... Total+1el-Energy
 Convergence forced     ConvForced      .... 0
 Energy Change          TolE            ....  1.000e-08 Eh
 1-El. energy change                    ....  1.000e-05 Eh
 Orbital Gradient       TolG            ....  1.000e-05
 Orbital Rotation angle TolX            ....  1.000e-05
 DIIS Error             TolErr          ....  5.000e-07

------------------------------
INITIAL GUESS: MODEL POTENTIAL
------------------------------
Loading Hartree-Fock densities                     ... done
Calculating cut-offs                               ... done
Initializing the effective Hamiltonian             ... done
Setting up the integral package (SHARK)            ... done
Starting the Coulomb interaction                   ... done (   0.0 sec)
Making the grid                                    ... done (   0.2 sec)
Mapping shells                                     ... done
Starting the XC term evaluation                    ... done (   0.1 sec)
  promolecular density results
     # of electrons  =     60.046864990
     EX              =    -45.978828744
     EC              =     -2.055930925
     EX+EC           =    -48.034759670
Transforming the Hamiltonian                       ... done (   0.0 sec)
Diagonalizing the Hamiltonian                      ... done (   0.0 sec)
Back transforming the eigenvectors                 ... done (   0.0 sec)
Now organizing SCF variables                       ... done
                      ------------------
                      INITIAL GUESS DONE (   0.3 sec)
                      ------------------
             **** ENERGY FILE WAS UPDATED (icosahedron_nn1.80.en.tmp) ****
Finished Guess after   0.8 sec
Maximum memory used throughout the entire GUESS-calculation: 9.8 MB


           ************************************************************
           *        Program running with 8 parallel MPI-processes     *
           *              working on a common directory               *
           ************************************************************

-------------------------------------------------------------------------------------------
                                      ORCA LEAN-SCF
                              memory conserving SCF solver
-------------------------------------------------------------------------------------------

----------------------------------------D-I-I-S--------------------------------------------
Iteration    Energy (Eh)           Delta-E    RMSDP     MaxDP     DIISErr   Damp  Time(sec)
-------------------------------------------------------------------------------------------
               ***  Starting incremental Fock matrix formation  ***
    1    -297.1621977177750864     0.00e+00  2.20e-02  2.41e-01  1.27e-01  0.850   0.4
Warning: op=0 Small HOMO/LUMO gap (  -0.040) - skipping pre-diagonalization
         Will do a full diagonalization
    2    -297.2810322237540390    -1.19e-01  1.37e-02  1.19e-01  9.17e-02  0.850   0.6
                               ***Turning on AO-DIIS***
    3    -297.3540208866602939    -7.30e-02  6.67e-03  4.33e-02  5.46e-02  0.850   0.5
    4    -297.3956684566331319    -4.16e-02  6.63e-03  6.27e-02  3.78e-02  0.850   0.5
    5    -297.4236461840743573    -2.80e-02  5.72e-03  5.84e-02  2.87e-02  0.850   0.5
    6    -297.4446695128884244    -2.10e-02  3.06e-02  3.24e-01  2.33e-02  0.000   0.4
    7    -297.5479367281141663    -1.03e-01  6.36e-03  6.13e-02  3.12e-03  0.000   0.4
    8    -297.5483902258534386    -4.53e-04  1.25e-03  1.02e-02  1.72e-03  0.000   0.4
                              *** Initializing SOSCF ***
---------------------------------------S-O-S-C-F--------------------------------------
Iteration    Energy (Eh)           Delta-E    RMSDP     MaxDP     MaxGrad    Time(sec)
--------------------------------------------------------------------------------------
    9    -297.5485675875995071    -1.77e-04  2.24e-03  2.05e-02  5.01e-04     0.5
               *** Restarting incremental Fock matrix formation ***
   10    -297.5486249265471201    -5.73e-05  1.93e-03  1.60e-02  1.37e-03     0.5
   11    -297.5486744126124563    -4.95e-05  5.67e-03  4.98e-02  5.47e-04     0.4
   12    -297.5487073788256680    -3.30e-05  2.07e-03  1.68e-02  6.17e-04     0.6
   13    -297.5487320696817619    -2.47e-05  4.03e-03  3.32e-02  5.49e-04     0.4
               *** Scaled step length from 0.474537 to 0.200000 ***
   14    -297.5487706042288778    -3.85e-05  4.74e-02  3.78e-01  7.25e-04     0.5
   15    -297.5490228580138705    -2.52e-04  2.16e-03  1.54e-02  2.38e-03     1.0
   16    -297.5491935812855786    -1.71e-04  1.93e-02  1.56e-01  1.44e-03     0.5
   17    -297.5492743310525725    -8.07e-05  1.14e-02  1.06e-01  9.24e-04     0.4
   18    -297.5493116644325369    -3.73e-05  2.14e-03  1.79e-02  6.43e-04     0.4
   19    -297.5493420460387028    -3.04e-05  1.77e-03  1.65e-02  3.53e-04     0.4
   20    -297.5493461008882718    -4.05e-06  8.78e-04  9.15e-03  2.41e-04     0.3
   21    -297.5493512087821841    -5.11e-06  1.79e-03  1.46e-02  1.78e-04     0.7
   22    -297.5493559436329747    -4.73e-06  2.51e-03  1.83e-02  1.46e-04     0.9
   23    -297.5493599581697595    -4.01e-06  2.43e-03  1.88e-02  1.25e-04     0.4
   24    -297.5493622234058080    -2.27e-06  6.26e-04  5.37e-03  1.24e-04     0.9
   25    -297.5493634996701644    -1.28e-06  2.31e-04  2.71e-03  6.18e-05     1.4
   26    -297.5493637001457614    -2.00e-07  5.80e-05  4.87e-04  2.68e-05     0.7
   27    -297.5493636785071772     2.16e-08  7.09e-05  1.03e-03  7.12e-05     0.6
   28    -297.5493637462981837    -6.78e-08  7.43e-05  6.81e-04  1.26e-05     0.5
   29    -297.5493637529013427    -6.60e-09  1.03e-05  8.43e-05  1.04e-05     0.4
                 **** Energy Check signals convergence ****
               *** Restarting incremental Fock matrix formation ***

               *****************************************************
               *                     SUCCESS                       *
               *           SCF CONVERGED AFTER  29 CYCLES          *
               *****************************************************

             **** ENERGY FILE WAS UPDATED (icosahedron_nn1.80.en.tmp) ****

----------------
TOTAL SCF ENERGY
----------------

Total Energy       :       -297.54936376244297 Eh           -8096.72982 eV

Components:
Nuclear Repulsion  :        379.94487228751353 Eh           10338.82559 eV
Electronic Energy  :       -677.49423604995650 Eh          -18435.55541 eV
One Electron Energy:      -1147.12855041920488 Eh          -31214.95479 eV
Two Electron Energy:        469.63431436924839 Eh           12779.39939 eV

Virial components:
Potential Energy   :       -589.25491525310781 Eh          -16034.44142 eV
Kinetic Energy     :        291.70555149066485 Eh            7937.71160 eV
Virial Ratio       :          2.02003325696722

DFT components:
N(Alpha)           :       30.000415924150 electrons
N(Beta)            :       30.000415924150 electrons
N(Total)           :       60.000831848300 electrons
E(X)               :      -46.164485907613 Eh       
E(C)               :       -2.085189100487 Eh       
E(XC)              :      -48.249675008099 Eh       

---------------
SCF CONVERGENCE
---------------

  Last Energy change         ...    6.6032e-09  Tolerance :   1.0000e-08
  Last MAX-Density change    ...    8.4290e-05  Tolerance :   1.0000e-07
  Last RMS-Density change    ...    1.0328e-05  Tolerance :   5.0000e-09
  Last DIIS Error            ...    5.0102e-04  Tolerance :   5.0000e-07
  Last Orbital Gradient      ...    1.0392e-05  Tolerance :   1.0000e-05
  Last Orbital Rotation      ...    2.5278e-05  Tolerance :   1.0000e-05


----------------
ORBITAL ENERGIES
----------------

  NO   OCC          E(Eh)            E(eV) 
   0   2.0000      -6.623091      -180.2235 
   1   2.0000      -6.622984      -180.2206 
   2   2.0000      -6.622847      -180.2168 
   3   2.0000      -6.622845      -180.2168 
   4   2.0000      -6.622793      -180.2154 
   5   2.0000      -6.622787      -180.2152 
   6   2.0000      -6.595102      -179.4618 
   7   2.0000      -6.595093      -179.4616 
   8   2.0000      -6.595082      -179.4613 
   9   2.0000      -6.594941      -179.4575 
  10   2.0000      -6.594933      -179.4572 
  11   2.0000      -6.594807      -179.4538 
  12   2.0000      -0.748301       -20.3623 
  13   2.0000      -0.608893       -16.5688 
  14   2.0000      -0.603232       -16.4148 
  15   2.0000      -0.603230       -16.4147 
  16   2.0000      -0.448660       -12.2086 
  17   2.0000      -0.445715       -12.1285 
  18   2.0000      -0.445712       -12.1284 
  19   2.0000      -0.441183       -12.0052 
  20   2.0000      -0.441181       -12.0052 
  21   2.0000      -0.340716        -9.2714 
  22   2.0000      -0.321337        -8.7440 
  23   2.0000      -0.319346        -8.6899 
  24   2.0000      -0.319344        -8.6898 
  25   2.0000      -0.313821        -8.5395 
  26   2.0000      -0.239001        -6.5036 
  27   2.0000      -0.229948        -6.2572 
  28   2.0000      -0.229946        -6.2572 
  29   2.0000      -0.169533        -4.6132 
  30   0.0000      -0.179832        -4.8935 
  31   0.0000      -0.179831        -4.8935 
  32   0.0000      -0.136417        -3.7121 
  33   0.0000      -0.136416        -3.7121 
  34   0.0000      -0.129333        -3.5193 
  35   0.0000      -0.122235        -3.3262 
  36   0.0000      -0.122231        -3.3261 
  37   0.0000      -0.038020        -1.0346 
  38   0.0000      -0.037173        -1.0115 
  39   0.0000      -0.037173        -1.0115 
  40   0.0000      -0.034107        -0.9281 
*Only the first 10 virtual orbitals were printed.

                    ********************************
                    * MULLIKEN POPULATION ANALYSIS *
                    ********************************

-----------------------
MULLIKEN ATOMIC CHARGES
-----------------------
   0 B :   -0.012959
   1 B :   -0.012972
   2 B :   -0.012970
   3 B :    0.012984
   4 B :    0.013012
   5 B :    0.012966
   6 B :    0.013023
   7 B :    0.013004
   8 B :    0.012995
   9 B :   -0.013021
  10 B :   -0.013028
  11 B :   -0.013034
Sum of atomic charges:    0.0000000

--------------------------------
MULLIKEN REDUCED ORBITAL CHARGES
--------------------------------
  0 B s       :     2.773032  s :     2.773032
      pz      :     0.687219  p :     2.178728
      px      :     0.758502
      py      :     0.733008
      dz2     :     0.012711  d :     0.061199
      dxz     :     0.012782
      dyz     :     0.012206
      dx2y2   :     0.012359
      dxy     :     0.011142

  1 B s       :     2.773039  s :     2.773039
      pz      :     0.758503  p :     2.178733
      px      :     0.733009
      py      :     0.687221
      dz2     :     0.011619  d :     0.061199
      dxz     :     0.011142
      dyz     :     0.012782
      dx2y2   :     0.013450
      dxy     :     0.012206

  2 B s       :     2.773044  s :     2.773044
      pz      :     0.733006  p :     2.178727
      px      :     0.687220
      py      :     0.758501
      dz2     :     0.013275  d :     0.061199
      dxz     :     0.012207
      dyz     :     0.011142
      dx2y2   :     0.011795
      dxy     :     0.012782

  3 B s       :     2.880319  s :     2.880319
      pz      :     0.634081  p :     2.047229
      px      :     0.724310
      py      :     0.688838
      dz2     :     0.013534  d :     0.059468
      dxz     :     0.013039
      dyz     :     0.012351
      dx2y2   :     0.009531
      dxy     :     0.011013

  4 B s       :     2.880302  s :     2.880302
      pz      :     0.724308  p :     2.047219
      px      :     0.688834
      py      :     0.634076
      dz2     :     0.009548  d :     0.059468
      dxz     :     0.011013
      dyz     :     0.013039
      dx2y2   :     0.013516
      dxy     :     0.012351

  5 B s       :     2.880332  s :     2.880332
      pz      :     0.688839  p :     2.047234
      px      :     0.634081
      py      :     0.724313
      dz2     :     0.011515  d :     0.059468
      dxz     :     0.012351
      dyz     :     0.011013
      dx2y2   :     0.011550
      dxy     :     0.013039

  6 B s       :     2.880304  s :     2.880304
      pz      :     0.634070  p :     2.047205
      px      :     0.724305
      py      :     0.688830
      dz2     :     0.013534  d :     0.059468
      dxz     :     0.013039
      dyz     :     0.012351
      dx2y2   :     0.009531
      dxy     :     0.011013

  7 B s       :     2.880309  s :     2.880309
      pz      :     0.724309  p :     2.047220
      px      :     0.688835
      py      :     0.634075
      dz2     :     0.009548  d :     0.059468
      dxz     :     0.011013
      dyz     :     0.013039
      dx2y2   :     0.013516
      dxy     :     0.012351

  8 B s       :     2.880321  s :     2.880321
      pz      :     0.688834  p :     2.047216
      px      :     0.634072
      py      :     0.724309
      dz2     :     0.011515  d :     0.059468
      dxz     :     0.012351
      dyz     :     0.011013
      dx2y2   :     0.011550
      dxy     :     0.013039

  9 B s       :     2.773055  s :     2.773055
      pz      :     0.687234  p :     2.178765
      px      :     0.758511
      py      :     0.733020
      dz2     :     0.012711  d :     0.061201
      dxz     :     0.012782
      dyz     :     0.012207
      dx2y2   :     0.012359
      dxy     :     0.011142

 10 B s       :     2.773060  s :     2.773060
      pz      :     0.758512  p :     2.178768
      px      :     0.733020
      py      :     0.687236
      dz2     :     0.011619  d :     0.061201
      dxz     :     0.011142
      dyz     :     0.012782
      dx2y2   :     0.013451
      dxy     :     0.012207

 11 B s       :     2.773062  s :     2.773062
      pz      :     0.733020  p :     2.178771
      px      :     0.687239
      py      :     0.758512
      dz2     :     0.013275  d :     0.061201
      dxz     :     0.012207
      dyz     :     0.011142
      dx2y2   :     0.011795
      dxy     :     0.012782



                     *******************************
                     * LOEWDIN POPULATION ANALYSIS *
                     *******************************

----------------------
LOEWDIN ATOMIC CHARGES
----------------------
   0 B :    0.041216
   1 B :    0.041209
   2 B :    0.041208
   3 B :   -0.041194
   4 B :   -0.041176
   5 B :   -0.041213
   6 B :   -0.041164
   7 B :   -0.041181
   8 B :   -0.041190
   9 B :    0.041169
  10 B :    0.041164
  11 B :    0.041152

-------------------------------
LOEWDIN REDUCED ORBITAL CHARGES
-------------------------------
  0 B s       :     2.623013  s :     2.623013
      pz      :     0.694891  p :     2.185615
      px      :     0.758132
      py      :     0.732592
      dz2     :     0.029194  d :     0.150156
      dxz     :     0.034814
      dyz     :     0.023959
      dx2y2   :     0.032157
      dxy     :     0.030032

  1 B s       :     2.623016  s :     2.623016
      pz      :     0.758133  p :     2.185619
      px      :     0.732595
      py      :     0.694891
      dz2     :     0.027036  d :     0.150156
      dxz     :     0.030032
      dyz     :     0.034814
      dx2y2   :     0.034315
      dxy     :     0.023959

  2 B s       :     2.623016  s :     2.623016
      pz      :     0.732594  p :     2.185620
      px      :     0.694895
      py      :     0.758132
      dz2     :     0.035797  d :     0.150156
      dxz     :     0.023959
      dyz     :     0.030031
      dx2y2   :     0.025555
      dxy     :     0.034814

  3 B s       :     2.708299  s :     2.708299
      pz      :     0.716411  p :     2.186281
      px      :     0.739919
      py      :     0.729951
      dz2     :     0.031887  d :     0.146614
      dxz     :     0.035257
      dyz     :     0.024174
      dx2y2   :     0.025376
      dxy     :     0.029919

  4 B s       :     2.708294  s :     2.708294
      pz      :     0.739917  p :     2.186270
      px      :     0.729947
      py      :     0.716406
      dz2     :     0.022846  d :     0.146612
      dxz     :     0.029919
      dyz     :     0.035257
      dx2y2   :     0.034417
      dxy     :     0.024174

  5 B s       :     2.708308  s :     2.708308
      pz      :     0.729954  p :     2.186292
      px      :     0.716417
      py      :     0.739921
      dz2     :     0.031162  d :     0.146613
      dxz     :     0.024175
      dyz     :     0.029919
      dx2y2   :     0.026101
      dxy     :     0.035257

  6 B s       :     2.708293  s :     2.708293
      pz      :     0.716400  p :     2.186258
      px      :     0.739915
      py      :     0.729943
      dz2     :     0.031887  d :     0.146613
      dxz     :     0.035257
      dyz     :     0.024174
      dx2y2   :     0.025376
      dxy     :     0.029919

  7 B s       :     2.708295  s :     2.708295
      pz      :     0.739917  p :     2.186273
      px      :     0.729947
      py      :     0.716409
      dz2     :     0.022845  d :     0.146613
      dxz     :     0.029919
      dyz     :     0.035258
      dx2y2   :     0.034417
      dxy     :     0.024174

  8 B s       :     2.708303  s :     2.708303
      pz      :     0.729948  p :     2.186274
      px      :     0.716409
      py      :     0.739917
      dz2     :     0.031161  d :     0.146612
      dxz     :     0.024175
      dyz     :     0.029918
      dx2y2   :     0.026101
      dxy     :     0.035257

  9 B s       :     2.623020  s :     2.623020
      pz      :     0.694908  p :     2.185652
      px      :     0.758140
      py      :     0.732604
      dz2     :     0.029194  d :     0.150159
      dxz     :     0.034815
      dyz     :     0.023959
      dx2y2   :     0.032158
      dxy     :     0.030032

 10 B s       :     2.623023  s :     2.623023
      pz      :     0.758141  p :     2.185654
      px      :     0.732605
      py      :     0.694909
      dz2     :     0.027037  d :     0.150159
      dxz     :     0.030032
      dyz     :     0.034815
      dx2y2   :     0.034315
      dxy     :     0.023960

 11 B s       :     2.623024  s :     2.623024
      pz      :     0.732607  p :     2.185664
      px      :     0.694916
      py      :     0.758141
      dz2     :     0.035798  d :     0.150159
      dxz     :     0.023960
      dyz     :     0.030032
      dx2y2   :     0.025555
      dxy     :     0.034815



                      *****************************
                      * MAYER POPULATION ANALYSIS *
                      *****************************

  NA   - Mulliken gross atomic population
  ZA   - Total nuclear charge
  QA   - Mulliken gross atomic charge
  VA   - Mayer's total valence
  BVA  - Mayer's bonded valence
  FA   - Mayer's free valence

  ATOM       NA         ZA         QA         VA         BVA        FA
  0 B      5.0130     5.0000    -0.0130     4.1171     4.1171    -0.0000
  1 B      5.0130     5.0000    -0.0130     4.1170     4.1170     0.0000
  2 B      5.0130     5.0000    -0.0130     4.1171     4.1171     0.0000
  3 B      4.9870     5.0000     0.0130     3.4950     3.4950     0.0000
  4 B      4.9870     5.0000     0.0130     3.4950     3.4950    -0.0000
  5 B      4.9870     5.0000     0.0130     3.4949     3.4949     0.0000
  6 B      4.9870     5.0000     0.0130     3.4950     3.4950     0.0000
  7 B      4.9870     5.0000     0.0130     3.4950     3.4950    -0.0000
  8 B      4.9870     5.0000     0.0130     3.4949     3.4949     0.0000
  9 B      5.0130     5.0000    -0.0130     4.1171     4.1171    -0.0000
 10 B      5.0130     5.0000    -0.0130     4.1171     4.1171     0.0000
 11 B      5.0130     5.0000    -0.0130     4.1171     4.1171     0.0000

  Mayer bond orders larger than 0.100000
B(  0-B ,  1-B ) :   0.7132 B(  0-B ,  2-B ) :   0.7132 B(  0-B ,  5-B ) :   0.8300 
B(  0-B ,  6-B ) :   0.5793 B(  0-B ,  7-B ) :   0.5792 B(  0-B ,  8-B ) :   0.1042 
B(  0-B ,  9-B ) :   0.1908 B(  0-B , 10-B ) :   0.1080 B(  0-B , 11-B ) :   0.1080 
B(  1-B ,  2-B ) :   0.7132 B(  1-B ,  3-B ) :   0.8300 B(  1-B ,  6-B ) :   0.1042 
B(  1-B ,  7-B ) :   0.5793 B(  1-B ,  8-B ) :   0.5792 B(  1-B ,  9-B ) :   0.1080 
B(  1-B , 10-B ) :   0.1908 B(  1-B , 11-B ) :   0.1080 B(  2-B ,  4-B ) :   0.8300 
B(  2-B ,  6-B ) :   0.5792 B(  2-B ,  7-B ) :   0.1042 B(  2-B ,  8-B ) :   0.5793 
B(  2-B ,  9-B ) :   0.1080 B(  2-B , 10-B ) :   0.1080 B(  2-B , 11-B ) :   0.1908 
B(  3-B ,  4-B ) :   0.1922 B(  3-B ,  5-B ) :   0.1922 B(  3-B ,  6-B ) :   0.2599 
B(  3-B ,  7-B ) :   0.2834 B(  3-B ,  8-B ) :   0.2834 B(  3-B ,  9-B ) :   0.5793 
B(  3-B , 10-B ) :   0.1042 B(  3-B , 11-B ) :   0.5792 B(  4-B ,  5-B ) :   0.1922 
B(  4-B ,  6-B ) :   0.2834 B(  4-B ,  7-B ) :   0.2599 B(  4-B ,  8-B ) :   0.2834 
B(  4-B ,  9-B ) :   0.5792 B(  4-B , 10-B ) :   0.5793 B(  4-B , 11-B ) :   0.1042 
B(  5-B ,  6-B ) :   0.2834 B(  5-B ,  7-B ) :   0.2834 B(  5-B ,  8-B ) :   0.2599 
[...]
      dz2     :     0.015393  d :     0.073966
      dxz     :     0.015542
      dyz     :     0.014725
      dx2y2   :     0.014650
      dxy     :     0.013656

 10 B s       :     2.522781  s :     2.522781
      pz      :     0.841282  p :     2.374530
      px      :     0.801887
      py      :     0.731361
      dz2     :     0.013823  d :     0.073939
      dxz     :     0.013653
      dyz     :     0.015546
      dx2y2   :     0.016187
      dxy     :     0.014730

 11 B s       :     2.522740  s :     2.522740
      pz      :     0.801865  p :     2.374568
      px      :     0.731305
      py      :     0.841398
      dz2     :     0.015814  d :     0.073939
      dxz     :     0.014734
      dyz     :     0.013639
      dx2y2   :     0.014215
      dxy     :     0.015537



                     *******************************
                     * LOEWDIN POPULATION ANALYSIS *
                     *******************************

----------------------
LOEWDIN ATOMIC CHARGES
----------------------
   0 B :    0.037747
   1 B :    0.037604
   2 B :    0.037618
   3 B :   -0.037453
   4 B :   -0.037543
   5 B :   -0.037959
   6 B :   -0.037452
   7 B :   -0.037414
   8 B :   -0.038106
   9 B :    0.037789
  10 B :    0.037579
  11 B :    0.037591

-------------------------------
LOEWDIN REDUCED ORBITAL CHARGES
-------------------------------
  0 B s       :     2.571505  s :     2.571505
      pz      :     0.677172  p :     2.204377
      px      :     0.786807
      py      :     0.740397
      dz2     :     0.035155  d :     0.186371
      dxz     :     0.042008
      dyz     :     0.030106
      dx2y2   :     0.040280
      dxy     :     0.038822

  1 B s       :     2.571660  s :     2.571660
      pz      :     0.786794  p :     2.204379
      px      :     0.740448
      py      :     0.677137
      dz2     :     0.034982  d :     0.186357
      dxz     :     0.038854
      dyz     :     0.042013
      dx2y2   :     0.040384
      dxy     :     0.030124

  2 B s       :     2.571678  s :     2.571678
      pz      :     0.740405  p :     2.204345
      px      :     0.677159
      py      :     0.786781
      dz2     :     0.042958  d :     0.186360
      dxz     :     0.030137
      dyz     :     0.038799
      dx2y2   :     0.032473
      dxy     :     0.041993

  3 B s       :     2.665634  s :     2.665634
      pz      :     0.725471  p :     2.198919
      px      :     0.738333
      py      :     0.735114
      dz2     :     0.037815  d :     0.172901
      dxz     :     0.040960
      dyz     :     0.029401
      dx2y2   :     0.030467
      dxy     :     0.034258

  4 B s       :     2.665734  s :     2.665734
      pz      :     0.738497  p :     2.198917
      px      :     0.734884
      py      :     0.725536
      dz2     :     0.027275  d :     0.172891
      dxz     :     0.034285
      dyz     :     0.040977
      dx2y2   :     0.040940
      dxy     :     0.029415

  5 B s       :     2.666285  s :     2.666285
      pz      :     0.735012  p :     2.198831
      px      :     0.725715
      py      :     0.738104
      dz2     :     0.037276  d :     0.172843
      dxz     :     0.029418
      dyz     :     0.034231
      dx2y2   :     0.030973
      dxy     :     0.040945

  6 B s       :     2.665626  s :     2.665626
      pz      :     0.725432  p :     2.198910
      px      :     0.738429
      py      :     0.735049
      dz2     :     0.037810  d :     0.172916
      dxz     :     0.040963
      dyz     :     0.029396
      dx2y2   :     0.030475
      dxy     :     0.034272

  7 B s       :     2.665566  s :     2.665566
      pz      :     0.738425  p :     2.198918
      px      :     0.735069
      py      :     0.725424
      dz2     :     0.027295  d :     0.172930
      dxz     :     0.034297
      dyz     :     0.040969
      dx2y2   :     0.040952
      dxy     :     0.029418

  8 B s       :     2.666440  s :     2.666440
      pz      :     0.734880  p :     2.198874
      px      :     0.725958
      py      :     0.738037
      dz2     :     0.037262  d :     0.172792
      dxz     :     0.029417
      dyz     :     0.034196
      dx2y2   :     0.030972
      dxy     :     0.040945

  9 B s       :     2.571432  s :     2.571432
      pz      :     0.677048  p :     2.204365
      px      :     0.786765
      py      :     0.740551
      dz2     :     0.035153  d :     0.186415
      dxz     :     0.042007
      dyz     :     0.030103
      dx2y2   :     0.040308
      dxy     :     0.038844

 10 B s       :     2.571697  s :     2.571697
      pz      :     0.786782  p :     2.204363
      px      :     0.740371
      py      :     0.677210
      dz2     :     0.034974  d :     0.186361
      dxz     :     0.038847
      dyz     :     0.042017
      dx2y2   :     0.040391
      dxy     :     0.030131

 11 B s       :     2.571666  s :     2.571666
      pz      :     0.740359  p :     2.204380
      px      :     0.677176
      py      :     0.786846
      dz2     :     0.042962  d :     0.186363
      dxz     :     0.030140
      dyz     :     0.038804
      dx2y2   :     0.032462
      dxy     :     0.041995



                      *****************************
                      * MAYER POPULATION ANALYSIS *
                      *****************************

  NA   - Mulliken gross atomic population
  ZA   - Total nuclear charge
  QA   - Mulliken gross atomic charge
  VA   - Mayer's total valence
  BVA  - Mayer's bonded valence
  FA   - Mayer's free valence

  ATOM       NA         ZA         QA         VA         BVA        FA
  0 B      4.9713     5.0000     0.0287     4.3362     4.3362     0.0000
  1 B      4.9712     5.0000     0.0288     4.3345     4.3345     0.0000
  2 B      4.9712     5.0000     0.0288     4.3345     4.3345     0.0000
  3 B      5.0287     5.0000    -0.0287     3.7689     3.7689     0.0000
  4 B      5.0288     5.0000    -0.0288     3.7687     3.7687     0.0000
  5 B      5.0289     5.0000    -0.0289     3.7645     3.7645     0.0000
  6 B      5.0286     5.0000    -0.0286     3.7690     3.7690    -0.0000
  7 B      5.0284     5.0000    -0.0284     3.7688     3.7688     0.0000
  8 B      5.0295     5.0000    -0.0295     3.7645     3.7645    -0.0000
  9 B      4.9710     5.0000     0.0290     4.3356     4.3356    -0.0000
 10 B      4.9713     5.0000     0.0287     4.3348     4.3348    -0.0000
 11 B      4.9712     5.0000     0.0288     4.3349     4.3349     0.0000

  Mayer bond orders larger than 0.100000
B(  0-B ,  1-B ) :   0.7065 B(  0-B ,  2-B ) :   0.7064 B(  0-B ,  3-B ) :   0.1602 
B(  0-B ,  4-B ) :   0.1602 B(  0-B ,  5-B ) :   0.8382 B(  0-B ,  6-B ) :   0.5538 
B(  0-B ,  7-B ) :   0.5537 B(  0-B ,  8-B ) :   0.1763 B(  0-B ,  9-B ) :   0.1892 
B(  0-B , 10-B ) :   0.1459 B(  0-B , 11-B ) :   0.1459 B(  1-B ,  2-B ) :   0.7071 
B(  1-B ,  3-B ) :   0.8404 B(  1-B ,  4-B ) :   0.1601 B(  1-B ,  5-B ) :   0.1604 
B(  1-B ,  6-B ) :   0.1764 B(  1-B ,  7-B ) :   0.5517 B(  1-B ,  8-B ) :   0.5511 
B(  1-B ,  9-B ) :   0.1458 B(  1-B , 10-B ) :   0.1891 B(  1-B , 11-B ) :   0.1460 
B(  2-B ,  3-B ) :   0.1602 B(  2-B ,  4-B ) :   0.8406 B(  2-B ,  5-B ) :   0.1602 
B(  2-B ,  6-B ) :   0.5518 B(  2-B ,  7-B ) :   0.1765 B(  2-B ,  8-B ) :   0.5511 
B(  2-B ,  9-B ) :   0.1457 B(  2-B , 10-B ) :   0.1459 B(  2-B , 11-B ) :   0.1891 
B(  3-B ,  4-B ) :   0.2609 B(  3-B ,  5-B ) :   0.2614 B(  3-B ,  6-B ) :   0.3126 
B(  3-B ,  7-B ) :   0.2460 B(  3-B ,  8-B ) :   0.2452 B(  3-B ,  9-B ) :   0.5543 
B(  3-B , 10-B ) :   0.1767 B(  3-B , 11-B ) :   0.5512 B(  4-B ,  5-B ) :   0.2613 
B(  4-B ,  6-B ) :   0.2459 B(  4-B ,  7-B ) :   0.3127 B(  4-B ,  8-B ) :   0.2451 
B(  4-B ,  9-B ) :   0.5545 B(  4-B , 10-B ) :   0.5509 B(  4-B , 11-B ) :   0.1766 
B(  5-B ,  6-B ) :   0.2450 B(  5-B ,  7-B ) :   0.2451 B(  5-B ,  8-B ) :   0.3148 
B(  5-B ,  9-B ) :   0.1760 B(  5-B , 10-B ) :   0.5509 B(  5-B , 11-B ) :   0.5511 
B(  6-B ,  7-B ) :   0.2603 B(  6-B ,  8-B ) :   0.2614 B(  6-B ,  9-B ) :   0.1600 
B(  6-B , 10-B ) :   0.8412 B(  6-B , 11-B ) :   0.1605 B(  7-B ,  8-B ) :   0.2615 
B(  7-B ,  9-B ) :   0.1601 B(  7-B , 10-B ) :   0.1604 B(  7-B , 11-B ) :   0.8408 
B(  8-B ,  9-B ) :   0.8375 B(  8-B , 10-B ) :   0.1604 B(  8-B , 11-B ) :   0.1603 
B(  9-B , 10-B ) :   0.7062 B(  9-B , 11-B ) :   0.7062 B( 10-B , 11-B ) :   0.7072 


-------
TIMINGS
-------

Total SCF time: 0 days 0 hours 0 min 2 sec 

Total time                  ....       2.315 sec
Sum of individual times     ....       1.880 sec  ( 81.2%)

SCF preparation             ....       0.511 sec  ( 22.1%)
Fock matrix formation       ....       1.098 sec  ( 47.4%)
  Startup                   ....       0.009 sec  (  0.8% of F)
  Split-RI-J                ....       0.469 sec  ( 42.7% of F)
  XC integration            ....       0.926 sec  ( 84.3% of F)
    Basis function eval.    ....       0.181 sec  ( 19.5% of XC)
    Density eval.           ....       0.157 sec  ( 16.9% of XC)
    XC-Functional eval.     ....       0.024 sec  (  2.6% of XC)
    XC-Potential eval.      ....       0.209 sec  ( 22.5% of XC)
Diagonalization             ....       0.000 sec  (  0.0%)
Density matrix formation    ....       0.019 sec  (  0.8%)
Total Energy calculation    ....       0.013 sec  (  0.6%)
Population analysis         ....       0.058 sec  (  2.5%)
Orbital Transformation      ....       0.023 sec  (  1.0%)
Orbital Orthonormalization  ....       0.000 sec  (  0.0%)
DIIS solution               ....       0.019 sec  (  0.8%)
SOSCF solution              ....       0.139 sec  (  6.0%)
Finished LeanSCF after   2.4 sec

Maximum memory used throughout the entire LEANSCF-calculation: 10.6 MB


-------------------------------------------------------------------------------
                          DFT DISPERSION CORRECTION                            
                                                                               
                              DFTD3 V3.1  Rev 1                                
                          USING Becke-Johnson damping                          
-------------------------------------------------------------------------------
The BP86 functional is recognized
Active option DFTDOPT                   ...         4   

molecular C6(AA) [au] = 4036.536167 


            DFT-D V3
 parameters
 s6 scaling factor         :     1.0000 
 a1 scaling factor         :     0.3946 
 s8 scaling factor         :     3.2822 
 a2 scaling factor         :     4.8516 
 ad hoc parameters k1-k3   :    16.0000     1.3333    -4.0000 

 Edisp/kcal,au: -23.924944954867  -0.038126822609 
 E6   /kcal   :  -6.812634601 
 E8   /kcal   : -17.112310353 
 % E8         :  71.524972725 

-------------------------   ----------------
Dispersion correction           -0.038126823
-------------------------   ----------------


-------------------------   --------------------
FINAL SINGLE POINT ENERGY      -297.635008529110
-------------------------   --------------------

                                *** OPTIMIZATION RUN DONE ***



           ************************************************************
           *        Program running with 8 parallel MPI-processes     *
           *              working on a common directory               *
           ************************************************************

------------------------------------------------------------------------------
                              ORCA PROPERTY CALCULATIONS
------------------------------------------------------------------------------

GBWName                                 ... icosahedron_nn1.80.gbw
Number of atoms                         ...     12
Number of basis functions               ...    168
Max core memory                         ...   2500 MB

Electric properties:
Dipole moment                           ... YES
Quadrupole moment                       ...  NO
Static polarizability (Dipole/Dipole)   ...  NO
Static polarizability (Dipole/Quad.)    ...  NO
Static polarizability (Quad./Quad.)     ...  NO
Static polarizability (Velocity)        ...  NO
Static hyperpolarizability              ...  NO

Atomic electric properties:
Dipole moment                           ...  NO
Quadrupole moment                       ...  NO
Static polarizability                   ...  NO

Choice of electric origin               ... Center of mass
Position of electric origin             ...    -0.000000    -0.000000    -0.000000

General magnetic properties:
Magnetizability                         ...  NO

EPR properties:
g-Tensor (aka g-matrix)                 ...  NO
Zero-Field splitting spin-orbit         ...  NO
Zero-field splitting spin-spin          ...  NO
Hyperfine couplings                     ...  NO (   0 nuclei)
Quadrupole couplings                    ...  NO (   0 nuclei)
Contact density                         ...  NO (   0 nuclei)

NMR properties:
Chemical shifts                         ...  NO (   0 nuclei)
Spin-rotation constants                 ...  NO (   0 nuclei)
Spin-spin couplings                     ...  NO (   0 nuclei,    0 pairs)

Choice of magnetic origin               ... GIAO
Position of magnetic origin             ...     0.000000     0.000000     0.000000

Properties with geometric perturbations:
SCF Hessian                             ...  NO
IR spectrum                             ...  NO
VCD spectrum                            ...  NO
X-ray spectroscopy properties:
SCF XES/XAS/RIXS spectra                ...  NO

SCF SOC stabilization energy            ...  NO
Diagonal Born-Oppenheimer correction    ...  NO

-------------
DIPOLE MOMENT
-------------

Method             : SCF
Type of density    : Electron Density
Multiplicity       :   1
Irrep              :   0
Energy             :  -297.5968817065010512 Eh
Basis              : AO
                                X                 Y                 Z
Electronic contribution:      0.001085552      -0.000761846      -0.000017000
Nuclear contribution   :      0.000000000      -0.000000000       0.000000000
                        -----------------------------------------
Total Dipole Moment    :      0.001085552      -0.000761846      -0.000017000
                        -----------------------------------------
Magnitude (a.u.)       :      0.001326319
Magnitude (Debye)      :      0.003371235



--------------------
Rotational spectrum 
--------------------
 
Rotational constants in cm-1:             0.074491             0.074470             0.070808 
Rotational constants in MHz :          2233.196649          2232.546073          2122.777053 

Dipole components along the rotational axes: 
x,y,z [a.u.] :     0.000948     0.000911     0.000175 
x,y,z [Debye]:     0.002410     0.002315     0.000446 

 

Dipole moment calculation done in   0.0 sec 

Maximum memory used throughout the entire PROP-calculation: 8.2 MB

--------------------------------
SUGGESTED CITATIONS FOR THIS RUN
--------------------------------

Below you find a list of papers that are relevant to this ORCA run
We neither can nor want to force you to cite these papers, but we appreciate if you do
You receive ORCA, which is the product of decades of hard work by many enthusiastic individuals, for free
The only thing we kindly ask in return is that you cite our papers,
We deeply appreciate it, if you show your appreciation for ORCA by not just citing the generic ORCA reference.

Please note that relegating all ORCA citations to the supporting information does *not* help us.
SI sections are not indexed - citations you put there will not count into any citation statistics
But we need these citations in order to attract the funding resources that allow us to do what we are doing

Therefore, if you are a happy ORCA user, please consider citing a few of the papers listed below in the main body of your paper

In addition to the list printed below, the program has created the file icosahedron_nn1.80.bibtex that contains the list in bibtex format
You can import this file easily into all common literature databanks and citation aid programs

It goes without saying that in many instances, there are alternative algorithms to achieve similar
results as the ones you have gotten from ORCA. It is, of course, also the case that in some instances
ORCA just re-implements algorithms worked out by others. We are fully aware of that and we are also
fully appreciative of our colleagues work. Hence this citation list should not be read as indicating
that the listed papers, which are focused on our own work, are the only ones worth citing. It simply
meant to make it easier for users to cite ORCA specific papers. It is not a substitute for doing your
own literature research and citing the relevant literature in a scientifically appropriate manner.

List of essential papers. We consider these as the minimum necessary citations

  1. Neese, F.
     Software update: the ORCA program system, version 6.0
     WIRES Comput. Molec. Sci. 2025 15(1), e70019
     doi.org/10.1002/wcms.70019

List of papers to cite with high priority. The work reported in these papers was absolutely
necessary for this run to complete.
Our perspective: the developers of density functionals and basis sets usually get cited in chemistry papers
Good! But without the algorithms to do something with them, the functionals or basis sets would not do anything.
Hence, in our opinion, the algorithm design and method developments papers are equally worthy of getting cited

  1. Neese, F.
     An improvement of the resolution of the identity approximation for the formation of the Coulomb matrix
     J. Comp. Chem. 2003 24(14), 1740-1747
     doi.org/10.1002/jcc.10318
  2. Grimme, S.; Antony, J.; Ehrlich, S.; Krieg, H.
     A consistent and accurate ab initio parametrization of density functional dispersion correction (DFT-D) for the 94 elements H-Pu
     J. Chem. Phys. 2010 132 , 154104
     doi.org/10.1063/1.3382344
  3. Grimme, S.; Ehrlich, S.; Goerigk, L.
     Effect of the damping function in dispersion corrected density functional theory
     J. Comput. Chem. 2011 32(7), 1456-1465
     doi.org/10.1002/jcc.21759
  4. Neese, F.
     The SHARK Integral Generation and Digestion System
     J. Comp. Chem. 2022 44(3), 381
     doi.org/10.1002/jcc.26942

List of suggested additional citations. These are papers that are important in the 'surrounding' of 
of this run, or papers that preceded the highly important papers. If you like your results we are grateful for a citation.

  1. Neese, F.
     The ORCA program system
     WIRES Comput. Molec. Sci. 2012 2(1), 73-78
     doi.org/10.1002/wcms.81
  2. Neese, F.
     Software update: the ORCA program system, version 4.0
     WIRES Comput. Molec. Sci. 2018 8(1), 1-6
     doi.org/10.1002/wcms.1327
  3. Neese, F.; Wennmohs, F.; Becker, U.; Riplinger, C.
     The ORCA quantum chemistry program package
     J. Chem. Phys. 2020 152(22), 224108
     doi.org/10.1063/5.0004608
  4. Neese, F.
     Software update: The ORCA program system—Version 5.0
     WIRES Comput. Molec. Sci. 2022 12(1), e1606
     doi.org/10.1002/wcms.1606

List of optional additional citations

  1. Neese, F.
     Approximate second-order SCF convergence for spin unrestricted wavefunctions
     Chem. Phys. Lett. 2000 325(1-3), 93-98
     doi.org/10.1016/s0009-2614(00)00662-x

Timings for individual modules:

Sum of individual times          ...      110.518 sec (=   1.842 min)
Startup calculation              ...       14.522 sec (=   0.242 min)  13.1 %
SCF iterations                   ...       73.459 sec (=   1.224 min)  66.5 %
Property calculations            ...        0.860 sec (=   0.014 min)   0.8 %
SCF Gradient evaluation          ...       21.190 sec (=   0.353 min)  19.2 %
Geometry relaxation              ...        0.486 sec (=   0.008 min)   0.4 %
                             ****ORCA TERMINATED NORMALLY****
TOTAL RUN TIME: 0 days 0 hours 1 minutes 57 seconds 378 msec
