
                                 *****************
                                 * O   R   C   A *
                                 *****************

                                            #,                                       
                                            ###                                      
                                            ####                                     
                                            #####                                    
                                            ######                                   
                                           ########,                                 
                                     ,,################,,,,,                         
                               ,,#################################,,                 
                          ,,##########################################,,             
                       ,#########################################, ''#####,          
                    ,#############################################,,   '####,        
                  ,##################################################,,,,####,       
                ,###########''''           ''''###############################       
              ,#####''   ,,,,##########,,,,          '''####'''          '####       
            ,##' ,,,,###########################,,,                        '##       
           ' ,,###''''                  '''############,,,                           
         ,,##''                                '''############,,,,        ,,,,,,###''
      ,#''                                            '''#######################'''  
     '                                                          ''''####''''         
             ,#######,   #######,   ,#######,      ##                                
            ,#'     '#,  ##    ##  ,#'     '#,    #''#        ,####,    ,#,          
            ##       ##  ##   ,#'  ##            #'  '#       #'       ,# #          
            ##       ##  #######   ##           ,######,      #####,      #          
            '#,     ,#'  ##    ##  '#,     ,#' ,#      #,     #,   #      #          
             '#######'   ##     ##  '#######'  #'      '#     '####' #    #          



                #########################################################
                #                        -***-                          #
                #          Department of theory and spectroscopy        #
                #                                                       #
                #                      Frank Neese                      #
                #                                                       #
                #     Directorship, Architecture, Infrastructure        #
                #                    SHARK, DRIVERS                     #
                #        Core code/Algorithms in most modules           #
                #                                                       #
                #        Max Planck Institute fuer Kohlenforschung      #
                #                Kaiser Wilhelm Platz 1                 #
                #                 D-45470 Muelheim/Ruhr                 #
                #                      Germany                          #
                #                                                       #
                #                  All rights reserved                  #
                #                        -***-                          #
                #########################################################


                         Program Version 6.1.1  -  RELEASE   -
                                (GIT: $487d211c$)
                          ($2025-11-21 10:33:24 +0100$)
                                                                         
                                  - NO-DMRG VERSION -                    
                                                                         


 With contributions from (in alphabetic order):
[Max-Planck-Institut fuer Kohlenforschung]                               
  Daniel Aravena         : Magnetic Suceptibility                        
  Michael Atanasov       : Ab Initio Ligand Field Theory (pilot matlab implementation)
  Alexander A. Auer      : GIAO ZORA, VPT2 properties, NMR spectrum      
  Ute Becker             : All parallelization in ORCA, NUMFREQ, NUMCALC 
  Giovanni Bistoni       : ED, misc. LED, open-shell LED, HFLD           
  Dmytro Bykov           : pre 5.0 version of the SCF Hessian            
  Marcos Casanova-Páez   : Triplet and SCS-CIS(D). UHF-(DLPNO)-IP/EA/STEOM-CCSD. UHF-CVS-IP/STEOM-CCSD   
  Vijay G. Chilkuri      : MRCI spin determinant printing, contributions to CSF-ICE 
  Pauline Colinet        : FMM embedding                                 
  Dipayan Datta          : RHF DLPNO-CCSD density                        
  Achintya Kumar Dutta   : EOM-CC, STEOM-CC                              
  Nicolas Foglia         : Exact transition moments, OPA infrastructure, MCD improvements    
  Dmitry Ganyushin       : Spin-Orbit,Spin-Spin,Magnetic field MRCI      
  Miquel Garcia-Rates    : C-PCM and meta-GGA Hessian, CCSD/C-PCM, Gaussian charge scheme 
  Tiago L. C. Gouveia    : GS-ROHF, GS-ROCIS                             
  Yang Guo               : DLPNO-NEVPT2, F12-NEVPT2, CIM, IAO-localization        
  Andreas Hansen         : Spin unrestricted coupled pair/coupled cluster methods 
  Ingolf Harden          : AUTO-CI MPn and infrastructure                
  Benjamin Helmich-Paris : MC-RPA, TRAH-(SCF,CASSCF), AVAS, COSX integrals, SCF dyn. polar., MC-PDFT, srDFT 
  Lee Huntington         : MR-EOM, pCC                                   
  Robert Izsak           : Overlap fitted RIJCOSX, COSX-SCS-MP3, EOM     
  Riya Kayal             : Wick's Theorem for AUTO-CI, AUTO-CI UHF-CCSDT 
  Emily Kempfer          : AUTO-CI RHF CISDT and CCSDT, approximate NEVPT4
  Christian Kollmar      : KDIIS, OOCD, Brueckner-CCSD(T), CCSD density, CASPT2, CASPT2-K, improved NEVPT2 
  Axel Koslowski         : Symmetry handling                             
  Simone Kossmann        : meta-GGA functionals, TD-DFT gradient, OOMP2, (MP2 Hessian; deprecated post 5.0) 
  Lucas Lang             : DCDCAS, Hyperfine gauge corrections, ICE-SOC+SSC
  Marvin Lechner         : AUTO-CI (C++ implementation), FIC-MRCC        
  Spencer Leger          : CASSCF response                               
  Dagmar Lenk            : GEPOL surface, SMD, ORCA-2-JSON               
  Dimitrios Liakos       : Extrapolation schemes; Compound Job, Property file
  Dimitrios Manganas     : Further ROCIS development; embedding schemes. LFT, Crystal Embedding 
  Dimitrios Pantazis     : SARC Basis sets                               
  Anastasios Papadopoulos: AUTO-CI, single reference methods and gradients 
  Taras Petrenko         : pre 6.0 DFT Hessian and TD-DFT gradient,  ECA, NRVS 
  Petra Pikulova         : Analytic Raman intensities                    
  Peter Pinski           : DLPNO-MP2, DLPNO-MP2 Gradient                 
  Shashank Vittal Rao    : ES-AILFT, MagRelax                            
  Christoph Reimann      : Effective Core Potentials                     
  Marius Retegan         : Local ZFS, SOC                                
  Christoph Riplinger    : Optimizer, TS searches, QM/MM, DLPNO-CCSD(T), (RO)-DLPNO pert. Triples 
  Michael Roemelt        : Original ROCIS implementation, recursive CI coupling coefficients
  Masaaki Saitow         : Open-shell DLPNO-CCSD energy and density      
  Barbara Sandhoefer     : DKH picture change effects                    
  Yorick L. A. Schmerwitz: GMF and freeze-and-release deltaSCF, NEB S-IDPP initial path                    
  Kantharuban Sivalingam : CASSCF convergence/infrastructure, NEVPT2, NEVPT3, NEVPT4(SD), FIC-MRCI and CEPA variants
  Bernardo de Souza      : ESD, SOC TD-DFT                               
  Georgi L. Stoychev     : AutoAux, RI-MP2 NMR, DLPNO-MP2 response, X2C  
  Van Anh Tran           : RI-MP2 g-tensors                              
  Willem Van den Heuvel  : Paramagnetic NMR                              
  Zikuan Wang            : NOTCH, Electric field optimization            
  Frank Wennmohs         : Technical directorship and infrastructure     
  Hang Xu                : AUTO-CI-Response properties                   
                                                                         
[FACCTs GmbH]                                                            
  Markus Bursch, Nicolas Foglia, Miquel Garcia-Rates, Ingolf Harden, Hagen Neugebauer, Anastasios Papadopoulos, 
  Christoph Riplinger, Bernardo de Souza, Georgi L. Stoychev                                                    
                                                                 
  APM, various basis sets, CI-OPT, improved COSX, DLPNO-Multilevel,           
  DOCKER, DRACO, updates on ESD, Fragmentator, GOAT, IRC, LR-CPCM, L-BFGS, MBIS, meta-GGA TD-DFT gradient, ML-optimized integration grids, 
  MM, NACMEs, nearIR, NEB, NEB-TS, NL-DFT gradient (VV10), 2- and 3-layer-ONIOM, interface openCOSMO-RS, QMMM,   
  Crystal-QMMM, RESP, rigid body optimization, SF, symmetry and pop. for TD-DFT, various functionals, SOLVATOR                                   
                                                                         
[Other institutions]                                                     
  V. Asgeirsson          : NEB                                           
  Christoph Bannwarth    : sTDA-DFT, sTD-DFT, PBEh-3c, B97-3c, D3        
  Giovanni Bistoni       : ETS/NOCV, ADLD/ADEX, COVALED                  
  Martin Brehm           : Molecular dynamics                            
  Ronald Cardenas        : ETS/NOCV                                      
  Martina Colucci        : COVALED                                       
  Sebastian Ehlert       : rSCAN, r2SCAN, r2SCAN-3c, D4, dhf basis sets  
  Marvin Friede          : D4 for Fr, Ra, Ac-Lr                          
  Lars Goerigk           : TD-DFT with DH, B97 family of functionals     
  Stefan Grimme          : VdW corrections, initial TS optimization, DFT functionals, gCP, sTDA/sTD-DF 
  Waldemar Hujo          : DFT-NL                                        
  H. Jonsson             : NEB                                           
  Holger Kruse           : gCP                                           
  Marcel Mueller         : wB97X-3c, vDZP basis set                      
  Hagen Neugebauer       : wr2SCAN, Native XTB                           
  Gianluca Regni         : ADLD/ADEX                                     
  Tobias Risthaus        : pre 6.0 range-separated hybrid DFT and stability analysis
  Lukas Wittmann         : regularized MP2, r2SCAN double-hybrids, wr2SCAN        
                                                                         
We gratefully acknowledge several colleagues who have allowed us to      
interface, adapt or use parts of their codes:                            
  Ed Valeev, F. Pavosevic, A. Kumar             : LibInt (2-el integral package), F12 methods 
  Garnet Chan, S. Sharma, J. Yang, R. Olivares  : DMRG                   
  Ulf Ekstrom                                   : XCFun DFT Library      
  Mihaly Kallay                                 : mrcc  (arbitrary order and MRCC methods)
  Frank Weinhold                                : gennbo (NPA and NBO analysis)           
  Simon Mueller                                 : openCOSMO-RS                            
  Christopher J. Cramer and Donald G. Truhlar   : smd solvation model                     
  S Lehtola, MJT Oliveira, MAL Marques          : LibXC Library                           
  Liviu Ungur et al                             : ANISO software                          


 Your calculation uses the libint2 library for the computation of 2-el integrals
 For citations please refer to: http://libint.valeyev.net

 Your ORCA version has been built with support for libXC version: 7.0.0
 For citations please refer to: https://libxc.gitlab.io

 This ORCA versions uses:
   CBLAS   interface :  Fast vector & matrix operations
   LAPACKE interface :  Fast linear algebra routines
   SCALAPACK package :  Parallel linear algebra routines
   Shared memory     :  Shared parallel matrices
   BLAS/LAPACK       :  OpenBLAS 0.3.29  USE64BITINT DYNAMIC_ARCH NO_AFFINITY Zen SINGLE_THREADED
        Core in use  :  Zen
   Copyright (c) 2011-2014, The OpenBLAS Project


  ***********************************
  * Starting time: Thu Apr 23 09:13:31 2026
  * Host name:     vmi3233575
  * Process ID:    1084075
  * Working dir.:  /root/b12_scan/jobs/cuboctahedron_nn1.70_perturb1
  ***********************************

NOTE: MaxCore=2500 MB was set to SCF,MP2,MDCI,CIPSI,MRCI,RASCI and CIS
      => If you want to overwrite this, your respective input block should be placed after the MaxCore statement
Your calculation utilizes the atom-pairwise dispersion correction
with the Becke-Johnson damping scheme (D3BJ)


================================================================================

----- Orbital basis set information -----
Your calculation utilizes the basis: def2-SVP
   F. Weigend and R. Ahlrichs, Phys. Chem. Chem. Phys. 7, 3297 (2005).

----- AuxJ basis set information -----
Your calculation utilizes the auxiliary basis: def2/J
   H-Rn: F. Weigend, Phys. Chem. Chem. Phys. 8, 1057 (2006).
   Fr-Lr: K. Eichkorn, F. Weigend, O. Treutler, R. Ahlrichs; Theor. Chem. Acc. 97, 119 (1997).

================================================================================
                                        WARNINGS
                       Please study these warnings very carefully!
================================================================================


WARNING: Geometry Optimization
  ===> : Switching off AutoStart
         For restart on a previous wavefunction, please use MOREAD

================================================================================
                                       INPUT FILE
================================================================================
NAME = cuboctahedron_nn1.70_perturb1.inp
|  1> ! BP86 def2-SVP def2/J RI Opt TightSCF D3BJ
|  2> ! SlowConv
|  3> 
|  4> %pal nprocs 8 end
|  5> %maxcore 2500
|  6> 
|  7> %geom
|  8>   MaxIter 300
|  9> end
| 10> 
| 11> * xyz 0 1
| 12> B      0.05183763     -1.07883881     -1.15251597
| 13> B     -1.39755511      0.13580338     -1.13512534
| 14> B     -1.28262451     -1.11491381      0.05468586
| 15> B      0.04411987     -1.19781819      1.28408848
| 16> B     -1.31254964     -0.02443649      1.12976363
| 17> B     -1.11225460      1.20803984     -0.04386851
| 18> B     -0.11728627      1.16350269     -1.20086020
| 19> B      1.16074109      0.19410957     -1.05107288
| 20> B      0.79540716     -1.48543351     -0.02621581
| 21> B     -0.06332856      1.23412798      1.23467982
| 22> B      1.51975734     -0.16680311      1.14544078
| 23> B      1.50849727      1.29908698      0.09945951
| 24> *
| 25> 
| 26>                          ****END OF INPUT****
================================================================================

                       *****************************
                       * Geometry Optimization Run *
                       *****************************

Geometry optimization settings:
Update method            Update   .... BFGS
Choice of coordinates    CoordSys .... (2022) Redundant Internals
Initial Hessian          InHess   .... Almloef's Model
Max. no of cycles        MaxIter  .... 300

Convergence Tolerances:
Energy Change            TolE     ....  5.0000e-06 Eh
Max. Gradient            TolMAXG  ....  3.0000e-04 Eh/bohr
RMS Gradient             TolRMSG  ....  1.0000e-04 Eh/bohr
Max. Displacement        TolMAXD  ....  4.0000e-03 bohr
RMS Displacement         TolRMSD  ....  2.0000e-03 bohr
Strict Convergence                .... False

------------------------------------------------------------------------------
                        ORCA OPTIMIZATION COORDINATE SETUP
------------------------------------------------------------------------------

The optimization will be done in redundant internal coordinates (2022)
Making redundant internal coordinates   ...  (2022 redundants) done
Evaluating the initial hessian          ...  (Almloef) done
Evaluating the coordinates              ...  done
Calculating the B-matrix                .... done
Calculating the G-matrix                .... done
The number of degrees of freedom        ....  221

    -----------------------------------------------------------------
                    Redundant Internal Coordinates


    -----------------------------------------------------------------
         Definition                    Initial Value    Approx d2E/dq
    -----------------------------------------------------------------
      1. B(B   1,B   0)                  1.8911         0.132997   
      2. B(B   2,B   0)                  1.7998         0.185994   
      3. B(B   2,B   1)                  1.7301         0.240330   
      4. B(B   3,B   2)                  1.8107         0.178735   
      5. B(B   4,B   3)                  1.8003         0.185659   
      6. B(B   4,B   2)                  1.5316         0.498246   
      7. B(B   5,B   1)                  1.5563         0.455119   
      8. B(B   5,B   4)                  1.7136         0.255295   
      9. B(B   6,B   5)                  1.5266         0.507460   
     10. B(B   6,B   1)                  1.6430         0.330877   
     11. B(B   7,B   6)                  1.6111         0.372123   
     12. B(B   7,B   0)                  1.6913         0.277163   
     13. B(B   8,B   7)                  2.0012         0.088776   
     14. B(B   8,B   3)                  1.5375         0.487496   
     15. B(B   8,B   0)                  1.4095         0.780224   
     16. B(B   9,B   5)                  1.6540         0.317854   
     17. B(B   9,B   4)                  1.7764         0.202731   
     18. B(B  10,B   8)                  1.9069         0.125516   
     19. B(B  10,B   3)                  1.8055         0.182187   
     20. B(B  11,B  10)                  1.8008         0.185310   
     21. B(B  11,B   9)                  1.9400         0.111145   
     22. B(B  11,B   7)                  1.6327         0.343714   
     23. B(B  11,B   6)                  2.0862         0.064949   
     24. A(B   1,B   0,B   8)          125.6077         0.356704   
     25. A(B   1,B   0,B   2)           55.8377         0.282513   
     26. A(B   7,B   0,B   8)           79.8225         0.405105   
     27. A(B   1,B   0,B   7)           91.0623         0.300797   
     28. A(B   2,B   0,B   8)           81.3380         0.377816   
     29. A(B   2,B   0,B   7)          117.4510         0.317500   
     30. A(B   2,B   1,B   5)           90.2104         0.359914   
     31. A(B   0,B   1,B   5)          107.9669         0.325957   
     32. A(B   5,B   1,B   6)           56.9244         0.380246   
     33. A(B   0,B   1,B   2)           59.4086         0.294070   
     34. A(B   0,B   1,B   6)           78.7071         0.309461   
     35. A(B   2,B   1,B   6)          115.3364         0.341054   
     36. A(B   1,B   2,B   4)           88.0930         0.365523   
     37. A(B   0,B   2,B   4)          118.1003         0.349938   
     38. A(B   0,B   2,B   1)           64.7537         0.310243   
     39. A(B   3,B   2,B   4)           64.5531         0.347597   
     40. A(B   1,B   2,B   3)          123.2794         0.308259   
     41. A(B   0,B   2,B   3)           85.0119         0.295901   
     42. A(B   2,B   3,B   8)           77.7589         0.346323   
     43. A(B   8,B   3,B  10)           69.0235         0.347440   
     44. A(B   4,B   3,B  10)          103.7173         0.296715   
     45. A(B   2,B   3,B  10)          121.3716         0.294935   
     46. A(B   2,B   3,B   4)           50.1927         0.295817   
     47. A(B   4,B   3,B   8)          114.6504         0.348547   
     48. A(B   3,B   4,B   5)          116.0647         0.313198   
     49. A(B   2,B   4,B   3)           65.2541         0.349831   
     50. A(B   5,B   4,B   9)           56.5429         0.317706   
     51. A(B   3,B   4,B   9)           85.8005         0.301799   
     52. A(B   2,B   4,B   9)          122.1511         0.355077   
     53. A(B   2,B   4,B   5)           91.6647         0.369329   
     54. A(B   1,B   5,B   4)           87.8958         0.363643   
     55. A(B   6,B   5,B   9)           99.9614         0.384810   
     56. A(B   4,B   5,B   9)           63.6435         0.342212   
     57. A(B   1,B   5,B   9)          132.0035         0.377611   
     58. A(B   4,B   5,B   6)          125.0472         0.370494   
     59. A(B   1,B   5,B   6)           64.4024         0.409847   
     60. A(B   1,B   6,B  11)          128.5314         0.276447   
     61. A(B   5,B   6,B  11)           91.9272         0.295499   
     62. A(B   5,B   6,B   7)          117.6526         0.395555   
     63. A(B   1,B   6,B   7)          103.7715         0.367272   
     64. A(B   1,B   6,B   5)           58.6732         0.387511   
     65. A(B   7,B   6,B  11)           50.4284         0.281498   
     66. A(B   8,B   7,B  11)          104.2414         0.291927   
     67. A(B   0,B   7,B  11)          133.7345         0.351573   
     68. A(B   0,B   7,B   6)           85.8240         0.356336   
     69. A(B   6,B   7,B  11)           80.0525         0.369680   
     70. A(B   6,B   7,B   8)          114.0666         0.295608   
     71. A(B   0,B   7,B   8)           43.8895         0.282280   
     72. A(B   7,B   8,B  10)           70.4246         0.250554   
     73. A(B   3,B   8,B  10)           62.1365         0.326539   
     74. A(B   0,B   8,B  10)          119.4644         0.353219   
     75. A(B   3,B   8,B   7)          111.6321         0.308631   
     76. A(B   0,B   8,B   7)           56.2880         0.333299   
     77. A(B   0,B   8,B   3)          111.6686         0.448201   
     78. A(B   5,B   9,B  11)           93.5555         0.298769   
     79. A(B   4,B   9,B  11)          123.9826         0.278468   
     80. A(B   4,B   9,B   5)           59.8136         0.329338   
     81. A(B   8,B  10,B  11)          101.7495         0.279834   
     82. A(B   3,B  10,B  11)          120.2869         0.296626   
     83. A(B   3,B  10,B   8)           48.8399         0.279102   
     84. A(B   7,B  11,B   9)          102.5402         0.302516   
     85. A(B   6,B  11,B   9)           74.4043         0.235435   
     86. A(B   6,B  11,B   7)           49.5191         0.278069   
     87. A(B   9,B  11,B  10)           68.7725         0.274654   
     88. A(B   7,B  11,B  10)           81.9365         0.328706   
     89. A(B   6,B  11,B  10)          108.3000         0.253397   
     90. D(B   2,B   1,B   0,B   7)   -122.9995         0.010000   
     91. D(B   5,B   1,B   0,B   2)     79.2088         0.010000   
     92. D(B   5,B   1,B   0,B   7)    -43.7907         0.010000   
     93. D(B   5,B   1,B   0,B   8)     34.4328         0.010000   
     94. D(B   6,B   1,B   0,B   2)    128.6818         0.010000   
     95. D(B   2,B   1,B   0,B   8)    -44.7760         0.010000   
     96. D(B   1,B   2,B   0,B   7)     70.8956         0.010000   
     97. D(B   3,B   2,B   1,B   0)     64.8811         0.010000   
     98. D(B   0,B   2,B   1,B   5)   -110.8654         0.010000   
     99. D(B   3,B   2,B   0,B   7)    -59.6560         0.010000   
    100. D(B   4,B   2,B   0,B   1)    -72.9326         0.010000   
    101. D(B   3,B   2,B   0,B   1)   -130.5516         0.010000   
    102. D(B   3,B   2,B   1,B   6)      6.9957         0.010000   
    103. D(B   3,B   2,B   1,B   5)    -45.9843         0.010000   
    104. D(B   4,B   2,B   1,B   0)    122.4625         0.010000   
    105. D(B   3,B   2,B   0,B   8)     14.0506         0.010000   
    106. D(B   0,B   2,B   1,B   6)    -57.8854         0.010000   
    107. D(B   1,B   2,B   0,B   8)    144.6023         0.010000   
    108. D(B   8,B   3,B   2,B   4)   -137.4232         0.010000   
    109. D(B   4,B   3,B   2,B   0)    124.4118         0.010000   
    110. D(B   8,B   3,B   2,B   1)    -68.3028         0.010000   
    111. D(B   4,B   3,B   2,B   1)     69.1205         0.010000   
    112. D(B   8,B   3,B   2,B   0)    -13.0114         0.010000   
    113. D(B  10,B   3,B   2,B   0)     42.8416         0.010000   
    114. D(B   5,B   4,B   2,B   3)    118.0747         0.013462   
    115. D(B   2,B   4,B   3,B   8)     46.6765         0.010000   
    116. D(B   5,B   4,B   2,B   0)     49.3737         0.013462   
    117. D(B   3,B   4,B   2,B   1)   -128.5983         0.013462   
    118. D(B   9,B   4,B   2,B   0)     -1.3413         0.013462   
    119. D(B   5,B   4,B   2,B   1)    -10.5237         0.013462   
    120. D(B   9,B   4,B   3,B   2)   -128.4171         0.010000   
    121. D(B   3,B   4,B   2,B   0)    -68.7009         0.013462   
    122. D(B   5,B   4,B   3,B  10)     40.5566         0.010000   
    123. D(B   5,B   4,B   3,B   8)    -32.3800         0.010000   
    124. D(B   5,B   4,B   3,B   2)    -79.0566         0.010000   
    125. D(B   2,B   4,B   3,B  10)    119.6132         0.010000   
    126. D(B   6,B   5,B   4,B   9)     83.5854         0.010000   
    127. D(B   6,B   5,B   4,B   2)    -44.6511         0.010000   
    128. D(B   1,B   5,B   4,B   3)     74.8464         0.010000   
    129. D(B   6,B   5,B   1,B   2)    120.5508         0.011327   
    130. D(B   9,B   5,B   1,B   0)    -17.2067         0.011327   
    131. D(B   6,B   5,B   1,B   0)     62.8143         0.011327   
    132. D(B   4,B   5,B   1,B   6)   -130.9029         0.011327   
    133. D(B   4,B   5,B   1,B   2)    -10.3521         0.011327   
    134. D(B   1,B   5,B   4,B   9)    139.9528         0.010000   
    135. D(B   6,B   5,B   4,B   3)     18.4789         0.010000   
    136. D(B   4,B   5,B   1,B   0)    -68.0885         0.011327   
    137. D(B   1,B   5,B   4,B   2)     11.7163         0.010000   
    138. D(B  11,B   6,B   5,B   1)   -135.1690         0.013949   
    139. D(B   7,B   6,B   5,B   9)     42.2529         0.013949   
    140. D(B   7,B   6,B   5,B   4)    -22.4452         0.013949   
    141. D(B   7,B   6,B   5,B   1)    -89.7540         0.013949   
    142. D(B   1,B   6,B   5,B   9)    132.0069         0.013949   
    143. D(B   7,B   6,B   1,B   5)    114.2186         0.010000   
    144. D(B   7,B   6,B   1,B   2)     41.8878         0.010000   
    145. D(B  11,B   6,B   1,B   0)    -56.1055         0.010000   
    146. D(B   7,B   6,B   1,B   0)     -6.1423         0.010000   
    147. D(B   5,B   6,B   1,B   2)    -72.3308         0.010000   
    148. D(B   5,B   6,B   1,B   0)   -120.3609         0.010000   
    149. D(B   1,B   6,B   5,B   4)     67.3088         0.013949   
    150. D(B   6,B   7,B   0,B   2)    -57.1432         0.010000   
    151. D(B   6,B   7,B   0,B   1)     -5.6980         0.010000   
    152. D(B   6,B   7,B   0,B   8)   -131.7354         0.010000   
    153. D(B   8,B   7,B   6,B  11)    101.2571         0.010000   
    154. D(B   8,B   7,B   6,B   1)    -27.7568         0.010000   
    155. D(B   0,B   7,B   6,B  11)    135.7698         0.010000   
    156. D(B   0,B   7,B   6,B   5)     68.3369         0.010000   
    157. D(B   0,B   7,B   6,B   1)      6.7559         0.010000   
    158. D(B  11,B   7,B   0,B   1)     66.2685         0.010000   
    159. D(B   8,B   7,B   6,B   5)     33.8242         0.010000   
    160. D(B   8,B   7,B   0,B   2)     74.5923         0.010000   
    161. D(B   8,B   7,B   0,B   1)    126.0374         0.010000   
    162. D(B  10,B   8,B   7,B   0)   -149.8666         0.010000   
    163. D(B   3,B   8,B   7,B  11)     37.6104         0.010000   
    164. D(B   3,B   8,B   7,B   6)    -47.6956         0.010000   
    165. D(B   0,B   8,B   7,B  11)    139.9033         0.010000   
    166. D(B   0,B   8,B   7,B   6)     54.5973         0.010000   
    167. D(B   7,B   8,B   3,B  10)    -51.8769         0.012907   
    168. D(B   7,B   8,B   3,B   4)     44.0631         0.012907   
    169. D(B   7,B   8,B   3,B   2)     78.9433         0.012907   
    170. D(B   0,B   8,B   3,B  10)   -112.8707         0.012907   
    171. D(B   0,B   8,B   3,B   4)    -16.9307         0.012907   
    172. D(B   0,B   8,B   3,B   2)     17.9495         0.012907   
    173. D(B  10,B   8,B   0,B   1)    -51.0438         0.033684   
    174. D(B   7,B   8,B   0,B   2)   -120.0736         0.033684   
    175. D(B   3,B   8,B   7,B   0)   -102.2929         0.010000   
    176. D(B   7,B   8,B   0,B   1)    -83.9500         0.033684   
    177. D(B   3,B   8,B   0,B   7)    102.2263         0.033684   
    178. D(B   3,B   8,B   0,B   2)    -17.8473         0.033684   
    179. D(B   3,B   8,B   0,B   1)     18.2762         0.033684   
    180. D(B  11,B   9,B   5,B   6)      3.4054         0.010000   
    181. D(B  11,B   9,B   5,B   4)    127.7147         0.010000   
    182. D(B  11,B   9,B   5,B   1)     67.8013         0.010000   
    183. D(B   4,B   9,B   5,B   6)   -124.3094         0.010000   
    184. D(B   4,B   9,B   5,B   1)    -59.9134         0.010000   
    185. D(B  11,B   9,B   4,B   5)    -72.2069         0.010000   
    186. D(B  11,B   9,B   4,B   3)     53.0043         0.010000   
    187. D(B  11,B   9,B   4,B   2)     -4.1829         0.010000   
    188. D(B   5,B   9,B   4,B   3)    125.2112         0.010000   
    189. D(B   5,B   9,B   4,B   2)     68.0240         0.010000   
    190. D(B  11,B  10,B   8,B   7)      8.9338         0.010000   
    191. D(B  11,B  10,B   8,B   3)   -120.1577         0.010000   
    192. D(B  11,B  10,B   8,B   0)    -19.7275         0.010000   
    193. D(B   3,B  10,B   8,B   7)    129.0915         0.010000   
    194. D(B   3,B  10,B   8,B   0)    100.4302         0.010000   
    195. D(B  11,B  10,B   3,B   8)     78.6180         0.010000   
    196. D(B  11,B  10,B   3,B   4)    -32.8643         0.010000   
    197. D(B  11,B  10,B   3,B   2)     18.5994         0.010000   
    198. D(B   8,B  10,B   3,B   4)   -111.4823         0.010000   
    199. D(B   8,B  10,B   3,B   2)    -60.0186         0.010000   
    200. D(B   7,B  11,B   9,B   5)    -43.7342         0.010000   
    201. D(B   7,B  11,B   9,B   4)     11.8172         0.010000   
    202. D(B   6,B  11,B   9,B   5)     -2.5475         0.010000   
    203. D(B  10,B  11,B   7,B   0)     48.2089         0.010000   
    204. D(B   9,B  11,B   7,B   8)    -55.9974         0.010000   
    205. D(B   9,B  11,B   7,B   6)     56.4997         0.010000   
    206. D(B   9,B  11,B   7,B   0)    -17.8288         0.010000   
    207. D(B   6,B  11,B   7,B   8)   -112.4971         0.010000   
    208. D(B   6,B  11,B   7,B   0)    -74.3284         0.010000   
    209. D(B  10,B  11,B   6,B   1)     13.1895         0.010000   
    210. D(B   9,B  11,B   6,B   7)   -122.3169         0.010000   
    211. D(B   6,B  11,B   9,B   4)     53.0039         0.010000   
    212. D(B   9,B  11,B   6,B   5)      2.7564         0.010000   
    213. D(B   9,B  11,B   6,B   1)    -47.5850         0.010000   
    214. D(B   7,B  11,B   6,B   5)    125.0733         0.010000   
    215. D(B  10,B  11,B   9,B   4)    -64.2634         0.010000   
    216. D(B   7,B  11,B   6,B   1)     74.7319         0.010000   
    217. D(B   9,B  11,B  10,B   3)     47.5132         0.010000   
    218. D(B   7,B  11,B  10,B   8)    -10.4356         0.010000   
    219. D(B   7,B  11,B  10,B   3)    -59.3617         0.010000   
    220. D(B   6,B  11,B  10,B   8)     32.0491         0.010000   
    221. D(B   6,B  11,B  10,B   3)    -16.8770         0.010000   
    -----------------------------------------------------------------

Number of atoms                         .... 12
Number of degrees of freedom            .... 221


         *************************************************************
         *                GEOMETRY OPTIMIZATION CYCLE   1            *
         *************************************************************
---------------------------------
CARTESIAN COORDINATES (ANGSTROEM)
---------------------------------
  B      0.051838   -1.078839   -1.152516
  B     -1.397555    0.135803   -1.135125
  B     -1.282625   -1.114914    0.054686
  B      0.044120   -1.197818    1.284088
  B     -1.312550   -0.024436    1.129764
  B     -1.112255    1.208040   -0.043869
  B     -0.117286    1.163503   -1.200860
  B      1.160741    0.194110   -1.051073
  B      0.795407   -1.485434   -0.026216
  B     -0.063329    1.234128    1.234680
  B      1.519757   -0.166803    1.145441
  B      1.508497    1.299087    0.099460

----------------------------
CARTESIAN COORDINATES (A.U.)
----------------------------
  NO LB      ZA    FRAG     MASS         X           Y           Z
   0 B     5.0000    0    10.810    0.097959   -2.038710   -2.177940
   1 B     5.0000    0    10.810   -2.640996    0.256631   -2.145076
   2 B     5.0000    0    10.810   -2.423809   -2.106882    0.103341
   3 B     5.0000    0    10.810    0.083374   -2.263548    2.426576
   4 B     5.0000    0    10.810   -2.480359   -0.046178    2.134944
   5 B     5.0000    0    10.810   -2.101857    2.282864   -0.082899
   6 B     5.0000    0    10.810   -0.221639    2.198701   -2.269297
   7 B     5.0000    0    10.810    2.193483    0.366814   -1.986240
   8 B     5.0000    0    10.810    1.503102   -2.807063   -0.049541
   9 B     5.0000    0    10.810   -0.119674    2.332164    2.333207
  10 B     5.0000    0    10.810    2.871925   -0.315212    2.164569
  11 B     5.0000    0    10.810    2.850647    2.454919    0.187951

--------------------------------
INTERNAL COORDINATES (ANGSTROEM)
--------------------------------
 B      0   0   0     0.000000000000     0.00000000     0.00000000
 B      1   0   0     1.891136536188     0.00000000     0.00000000
 B      2   1   0     1.730073184528    59.40858882     0.00000000
 B      3   2   1     1.810677936064   123.27940278    64.88109603
 B      3   2   1     1.531609777452    88.09299084   122.46251562
 B      2   1   3     1.556254759408   107.96692191    79.20881361
 B      6   2   1     1.526622188415    64.40241984    62.81434281
 B      7   6   2     1.611059649810   117.65261384   270.24599360
 B      1   2   3     1.409527206700   125.60773021   315.22396591
 B      6   2   1     1.653968639541   132.00348971   342.79330613
 B      4   3   2     1.805469806663   121.37164632   347.55020109
 B      8   7   6     1.632677009631    80.05249078   292.56709190

---------------------------
INTERNAL COORDINATES (A.U.)
---------------------------
 B      0   0   0     0.000000000000     0.00000000     0.00000000
 B      1   0   0     3.573730135247     0.00000000     0.00000000
 B      2   1   0     3.269364510399    59.40858882     0.00000000
 B      3   2   1     3.421685415894   123.27940278    64.88109603
 B      3   2   1     2.894323023421    88.09299084   122.46251562
 B      2   1   3     2.940895289893   107.96692191    79.20881361
 B      6   2   1     2.884897846073    64.40241984    62.81434281
 B      7   6   2     3.044461523551   117.65261384   270.24599360
 B      1   2   3     2.663620398975   125.60773021   315.22396591
 B      6   2   1     3.125547762826   132.00348971   342.79330613
 B      4   3   2     3.411843477656   121.37164632   347.55020109
 B      8   7   6     3.085312413352    80.05249078   292.56709190

---------------------
BASIS SET INFORMATION
---------------------
There are 1 groups of distinct atoms

 Group   1 Type B   : 7s4p1d contracted to 3s2p1d pattern {511/31/1}

Atom   0B    basis set group =>   1
Atom   1B    basis set group =>   1
Atom   2B    basis set group =>   1
Atom   3B    basis set group =>   1
Atom   4B    basis set group =>   1
Atom   5B    basis set group =>   1
Atom   6B    basis set group =>   1
Atom   7B    basis set group =>   1
Atom   8B    basis set group =>   1
Atom   9B    basis set group =>   1
Atom  10B    basis set group =>   1
Atom  11B    basis set group =>   1
---------------------------------
AUXILIARY/J BASIS SET INFORMATION
---------------------------------
There are 1 groups of distinct atoms

 Group   1 Type B   : 12s5p4d2f1g contracted to 6s4p3d1f1g pattern {711111/2111/211/2/1}

Atom   0B    basis set group =>   1
Atom   1B    basis set group =>   1
Atom   2B    basis set group =>   1
Atom   3B    basis set group =>   1
Atom   4B    basis set group =>   1
Atom   5B    basis set group =>   1
Atom   6B    basis set group =>   1
Atom   7B    basis set group =>   1
Atom   8B    basis set group =>   1
Atom   9B    basis set group =>   1
Atom  10B    basis set group =>   1
Atom  11B    basis set group =>   1


           ************************************************************
           *        Program running with 8 parallel MPI-processes     *
           *              working on a common directory               *
           ************************************************************
------------------------------------------------------------------------------
                             ORCA STARTUP CALCULATIONS
                           -- RI-GTO INTEGRALS CHOSEN --
------------------------------------------------------------------------------
------------------------------------------------------------------------------
                   ___                                                        
                  /   \      - P O W E R E D   B Y -                         
                 /     \                                                     
                 |  |  |   _    _      __       _____    __    __             
                 |  |  |  | |  | |    /  \     |  _  \  |  |  /  |          
                  \  \/   | |  | |   /    \    | | | |  |  | /  /          
                 / \  \   | |__| |  /  /\  \   | |_| |  |  |/  /          
                |  |  |   |  __  | /  /__\  \  |    /   |      \           
                |  |  |   | |  | | |   __   |  |    \   |  |\   \          
                \     /   | |  | | |  |  |  |  | |\  \  |  | \   \       
                 \___/    |_|  |_| |__|  |__|  |_| \__\ |__|  \__/        
                                                                              
                      - O R C A' S   B I G   F R I E N D -                    
                                      &                                       
                       - I N T E G R A L  F E E D E R -                       
                                                                              
 v1 FN, 2020, v2 2021, v3 2022-2024                                           
------------------------------------------------------------------------------


----------------------
SHARK INTEGRAL PACKAGE
----------------------

Number of atoms                             ...     12
Number of basis functions                   ...    168
Number of shells                            ...     72
Maximum angular momentum                    ...      2
Integral batch strategy                     ... SHARK/LIBINT Hybrid
RI-J (if used) integral strategy            ... SPLIT-RIJ (Revised 2003 algorithm where possible)
Printlevel                                  ...      1
Contraction scheme used                     ... SEGMENTED contraction
Prescreening option                         ... SCHWARTZ
   Thresh                                   ... 2.500e-11
   Tcut                                     ... 2.500e-12
   Tpresel                                  ... 2.500e-12 
Coulomb Range Separation                    ... NOT USED
Exchange Range Separation                   ... NOT USED
Multipole approximations                    ... NOT USED
Finite Nucleus Model                        ... NOT USED
CABS basis                                  ... NOT available
Auxiliary Coulomb fitting basis             ... AVAILABLE
   # of basis functions in Aux-J            ...    588
   # of shells in Aux-J                     ...    180
   Maximum angular momentum in Aux-J        ...      4
Auxiliary J/K fitting basis                 ... NOT available
Auxiliary Correlation fitting basis         ... NOT available
Auxiliary 'external' fitting basis          ... NOT available

Checking pre-screening integrals            ... done (  0.0 sec) Dimension = 72
   => SHARK Basis and OBASIS are compatible. Storing Pre-screening
Shell pair information
Shell pair cut-off parameter TPreSel        ...   2.5e-12
Total number of shell pairs                 ...      2628
Shell pairs after pre-screening             ...      2591
Total number of primitive shell pairs       ...     10596
Primitive shell pairs kept                  ...      8116
          la=0 lb=0:    629 shell pairs
          la=1 lb=0:    864 shell pairs
          la=1 lb=1:    300 shell pairs
          la=2 lb=0:    432 shell pairs
          la=2 lb=1:    288 shell pairs
          la=2 lb=2:     78 shell pairs

Checking whether 4 symmetric matrices of dimension 168 fit in memory
:Max Core in MB      =   2500.00
 MB in use           =      6.95
 MB left             =   2493.05
 MB needed           =      0.43
 Data fit in memory  = YES
Calculating RI/J V-Matrix + Cholesky decomp.... done (  0.0 sec)
Calculating Nuclear repulsion               ... done (  0.0 sec) ENN=    378.076277243100 Eh

Diagonalization of the overlap matrix:
Smallest eigenvalue                        ... 4.595e-05
Time for diagonalization                   ...    0.003 sec
Threshold for overlap eigenvalues          ... 1.000e-07
Number of eigenvalues below threshold      ... 0
Time for construction of square roots      ...    0.003 sec
Total time needed                          ...    0.008 sec

-------------------
DFT GRID GENERATION
-------------------

General Integration Accuracy     IntAcc      ... 4.388
Radial Grid Type                 RadialGrid  ... OptM3 with GC (2021)
Angular Grid (max. ang.)         AngularGrid ... 4 (Lebedev-302)
Angular grid pruning method      GridPruning ... 4 (adaptive)
Weight generation scheme         WeightScheme... mBecke (2022)
Basis function cutoff            BFCut       ... 1.0000e-11
Integration weight cutoff        WCut        ... 1.0000e-14
Partially contracted basis set               ... off
Rotationally invariant grid construction     ... off
Angular grids for H and He will be reduced by one unit

Total number of grid points                  ...    70076
Total number of batches                      ...     1101
Average number of points per batch           ...       63
Average number of grid points per atom       ...     5840
Grids setup in   0.8 sec
Initializing property integral containers    ... done (  0.0 sec)

SHARK setup successfully completed in   1.0 seconds

Maximum memory used throughout the entire STARTUP-calculation: 19.8 MB


           ************************************************************
           *        Program running with 8 parallel MPI-processes     *
           *              working on a common directory               *
           ************************************************************
-------------------------------------------------------------------------------
                                 ORCA GUESS
                   Start orbitals & Density for SCF / CASSCF
-------------------------------------------------------------------------------

------------
SCF SETTINGS
------------
Hamiltonian:
 Density Functional     Method          .... DFT(GTOs)
 Exchange Functional    Exchange        .... B88
   X-Alpha parameter    XAlpha          ....  0.666667
   Becke's b parameter  XBeta           ....  0.004200
 Correlation Functional Correlation     .... P86
 LDA part of GGA corr.  LDAOpt          .... PW91-LDA
 Gradients option       PostSCFGGA      .... off
   NL short-range parameter             ....  4.400000
 RI-approximation to the Coulomb term is turned on
   Number of AuxJ basis functions       .... 588


General Settings:
 Integral files         IntName         .... cuboctahedron_nn1.70_perturb1
 Hartree-Fock type      HFTyp           .... RHF
 Total Charge           Charge          ....    0
 Multiplicity           Mult            ....    1
 Number of Electrons    NEL             ....   60
 Basis Dimension        Dim             ....  168
 Nuclear Repulsion      ENuc            ....    378.0762772431 Eh

Convergence Acceleration:
 AO-DIIS                CNVDIIS         .... on
   Start iteration      DIISMaxIt       ....     0
   Startup error        DIISStart       ....  0.200000
   # of expansion vecs  DIISMaxEq       ....     5
   Bias factor          DIISBfac        ....   1.050
   Max. coefficient     DIISMaxC        ....  10.000
 MO-DIIS                CNVKDIIS        .... off
 Trust-Rad. Augm. Hess. CNVTRAH         .... auto
   Auto Start mean grad. ratio tolernc. ....  1.125000
   Auto Start start iteration           ....    50
   Auto Start num. interpolation iter.  ....    10
   Max. Number of Micro iterations      ....    24
   Max. Number of Macro iterations      .... Maxiter - #DIIS iter
   Number of Davidson start vectors     ....     2
   Converg. threshold    (grad. norm)   ....   1.000e-05
   Grad. Scal. Fac. for Micro threshold ....   0.100
   Minimum threshold for Micro iter.    ....   1.000e-02
   NR start threshold (gradient norm)   ....   1.000e-04
   Initial trust radius                 ....   0.400
   Minimum AH scaling param. (alpha)    ....   1.000
   Maximum AH scaling param. (alpha)    .... 1000.000
   Quad. conv. algorithm                .... NR
   White noise on init. David. guess    .... on
   Maximum white noise                  ....   0.010
   Pseudo random numbers                .... off
   Inactive MOs                         .... canonical
   Orbital update algorithm             .... Taylor
   Preconditioner                       .... Diag
   Full preconditioner red. dimension   ....   250
 SOSCF                 CNVSOSCF           .... on
   Start iteration     SOSCFMaxIt         ....   150
   Startup grad/error  SOSCFStart         ....  0.001000
   Hessian update      SOSCFHessUp        .... L-BFGS
   Autom. constraints  SOSCFAutoConstrain .... off
 Level Shifting         CNVShift        .... on
   Level shift para.    LevelShift      ....    0.2500
   Turn off err/grad.   ShiftErr        ....    0.0000
 Zerner damping         CNVZerner       .... off
 Static damping         CNVDamp         .... on
   Fraction old density DampFac         ....    0.8500
   Max. Damping (<1)    DampMax         ....    0.9800
   Min. Damping (>=0)   DampMin         ....    0.0000
   Turn off err/grad.   DampErr         ....    0.0300

SCF Procedure:
 Maximum # iterations   MaxIter         ....   125
 SCF integral mode      SCFMode         .... Direct
   Integral package                     .... SHARK and LIBINT hybrid scheme
 Reset frequency        DirectResetFreq ....    20
 Integral Threshold     Thresh          ....  2.500e-11 Eh
 Primitive CutOff       TCut            ....  2.500e-12 Eh

Convergence Tolerance:
 Convergence Check Mode ConvCheckMode   .... Total+1el-Energy
 Convergence forced     ConvForced      .... 0
 Energy Change          TolE            ....  1.000e-08 Eh
 1-El. energy change                    ....  1.000e-05 Eh
 Orbital Gradient       TolG            ....  1.000e-05
 Orbital Rotation angle TolX            ....  1.000e-05
 DIIS Error             TolErr          ....  5.000e-07

------------------------------
INITIAL GUESS: MODEL POTENTIAL
------------------------------
Loading Hartree-Fock densities                     ... done
Calculating cut-offs                               ... done
Initializing the effective Hamiltonian             ... done
Setting up the integral package (SHARK)            ... done
Starting the Coulomb interaction                   ... done (   0.1 sec)
Making the grid                                    ... done (   0.2 sec)
Mapping shells                                     ... done
Starting the XC term evaluation                    ... done (   0.1 sec)
  promolecular density results
     # of electrons  =     59.993595464
     EX              =    -45.987106238
     EC              =     -2.044878427
     EX+EC           =    -48.031984664
Transforming the Hamiltonian                       ... done (   0.0 sec)
Diagonalizing the Hamiltonian                      ... done (   0.0 sec)
Back transforming the eigenvectors                 ... done (   0.0 sec)
Now organizing SCF variables                       ... done
                      ------------------
                      INITIAL GUESS DONE (   0.4 sec)
                      ------------------
             **** ENERGY FILE WAS UPDATED (cuboctahedron_nn1.70_perturb1.en.tmp) ****
Finished Guess after   1.0 sec
Maximum memory used throughout the entire GUESS-calculation: 9.8 MB


           ************************************************************
           *        Program running with 8 parallel MPI-processes     *
           *              working on a common directory               *
           ************************************************************

-------------------------------------------------------------------------------------------
                                      ORCA LEAN-SCF
                              memory conserving SCF solver
-------------------------------------------------------------------------------------------

----------------------------------------D-I-I-S--------------------------------------------
Iteration    Energy (Eh)           Delta-E    RMSDP     MaxDP     DIISErr   Damp  Time(sec)
-------------------------------------------------------------------------------------------
               ***  Starting incremental Fock matrix formation  ***
    1    -296.6300944856963611     0.00e+00  3.90e-02  4.23e-01  1.74e-01  0.850   0.5
Warning: op=0 Small HOMO/LUMO gap (  -0.033) - skipping pre-diagonalization
         Will do a full diagonalization
    2    -296.8928892760107487    -2.63e-01  3.60e-02  3.91e-01  1.14e-01  0.850   0.5
                               ***Turning on AO-DIIS***
    3    -297.0076927269371367    -1.15e-01  3.07e-02  5.18e-01  7.32e-02  0.850   0.5
    4    -297.0639357760409780    -5.62e-02  2.29e-02  4.17e-01  4.91e-02  0.850   0.6
    5    -297.1069906812097656    -4.31e-02  1.68e-02  3.15e-01  3.39e-02  0.850   0.6
    6    -297.1415759220198538    -3.46e-02  1.28e-02  2.43e-01  2.53e-02  0.850   0.8
    7    -297.1701716805383171    -2.86e-02  6.89e-02  1.30e+00  2.03e-02  0.000   0.4
    8    -297.3274511201065593    -1.57e-01  6.81e-03  5.17e-02  8.78e-03  0.000   0.4
    9    -297.3296436326257322    -2.19e-03  3.86e-03  3.28e-02  5.63e-03  0.000   0.5
   10    -297.3305153607446414    -8.72e-04  2.12e-03  2.37e-02  2.89e-03  0.000   0.5
   11    -297.3310657604218363    -5.50e-04  1.59e-03  1.12e-02  1.69e-03  0.000   0.7
   12    -297.3313744630724500    -3.09e-04  1.41e-03  1.01e-02  1.82e-03  0.000   0.4
                              *** Initializing SOSCF ***
---------------------------------------S-O-S-C-F--------------------------------------
Iteration    Energy (Eh)           Delta-E    RMSDP     MaxDP     MaxGrad    Time(sec)
--------------------------------------------------------------------------------------
   13    -297.3315831170056640    -2.09e-04  9.88e-04  6.74e-03  9.76e-04     0.5
               *** Restarting incremental Fock matrix formation ***
   14    -297.3317421872491764    -1.59e-04  1.94e-03  1.33e-02  1.68e-03     0.5
   15    -297.3319573975799699    -2.15e-04  6.40e-03  4.20e-02  1.15e-03     0.5
   16    -297.3319480571939835     9.34e-06  2.07e-03  1.54e-02  2.42e-03     0.5
   17    -297.3320361937667826    -8.81e-05  3.18e-03  1.75e-02  1.79e-03     0.5
   18    -297.3322186014713111    -1.82e-04  1.43e-03  1.11e-02  5.93e-04     0.4
   19    -297.3322239301585910    -5.33e-06  1.51e-03  9.83e-03  1.19e-03     0.5
   20    -297.3322314155342951    -7.49e-06  1.22e-03  9.91e-03  9.73e-04     0.5
   21    -297.3322653456853573    -3.39e-05  6.47e-04  6.80e-03  3.40e-04     0.5
   22    -297.3322694089518450    -4.06e-06  4.59e-04  2.88e-03  2.46e-04     0.4
   23    -297.3322755875654479    -6.18e-06  2.89e-04  2.29e-03  1.12e-04     0.4
   24    -297.3322748114497358     7.76e-07  1.68e-04  1.02e-03  2.44e-04     0.4
   25    -297.3322767076594459    -1.90e-06  2.08e-04  2.46e-03  7.05e-05     0.4
   26    -297.3322767849054458    -7.72e-08  1.40e-04  1.29e-03  7.44e-05     0.5
   27    -297.3322772415781969    -4.57e-07  7.57e-05  5.17e-04  2.31e-05     0.4
   28    -297.3322772999118229    -5.83e-08  8.71e-05  6.85e-04  1.76e-05     0.4
   29    -297.3322773377843191    -3.79e-08  1.35e-05  1.13e-04  7.43e-06     0.4
   30    -297.3322773440584683    -6.27e-09  8.26e-06  1.01e-04  3.65e-06     0.4
                 **** Energy Check signals convergence ****

               *****************************************************
               *                     SUCCESS                       *
               *           SCF CONVERGED AFTER  30 CYCLES          *
               *****************************************************

             **** ENERGY FILE WAS UPDATED (cuboctahedron_nn1.70_perturb1.en.tmp) ****

----------------
TOTAL SCF ENERGY
----------------

Total Energy       :       -297.33227734544533 Eh           -8090.82260 eV

Components:
Nuclear Repulsion  :        378.07627724310026 Eh           10287.97853 eV
Electronic Energy  :       -675.40855458854548 Eh          -18378.80113 eV
One Electron Energy:      -1143.41229677932029 Eh          -31113.83039 eV
Two Electron Energy:        468.00374219077474 Eh           12735.02926 eV

Virial components:
Potential Energy   :       -590.57567987927405 Eh          -16070.38125 eV
Kinetic Energy     :        293.24340253382871 Eh            7979.55866 eV
Virial Ratio       :          2.01394362081563

DFT components:
N(Alpha)           :       29.999951307479 electrons
N(Beta)            :       29.999951307479 electrons
N(Total)           :       59.999902614959 electrons
E(X)               :      -46.357855975800 Eh       
E(C)               :       -2.073027159226 Eh       
E(XC)              :      -48.430883135025 Eh       

---------------
SCF CONVERGENCE
---------------

  Last Energy change         ...    6.2741e-09  Tolerance :   1.0000e-08
  Last MAX-Density change    ...    1.0130e-04  Tolerance :   1.0000e-07
  Last RMS-Density change    ...    8.2602e-06  Tolerance :   5.0000e-09
  Last DIIS Error            ...    9.7620e-04  Tolerance :   5.0000e-07
  Last Orbital Gradient      ...    3.6470e-06  Tolerance :   1.0000e-05
  Last Orbital Rotation      ...    4.8301e-05  Tolerance :   1.0000e-05


----------------
ORBITAL ENERGIES
----------------

  NO   OCC          E(Eh)            E(eV) 
   0   2.0000      -6.621980      -180.1932 
   1   2.0000      -6.614001      -179.9761 
   2   2.0000      -6.604228      -179.7102 
   3   2.0000      -6.596546      -179.5011 
   4   2.0000      -6.596376      -179.4965 
   5   2.0000      -6.595284      -179.4668 
   6   2.0000      -6.594403      -179.4428 
   7   2.0000      -6.589791      -179.3173 
   8   2.0000      -6.584563      -179.1751 
   9   2.0000      -6.578862      -179.0199 
  10   2.0000      -6.576900      -178.9666 
  11   2.0000      -6.575377      -178.9251 
  12   2.0000      -0.736511       -20.0415 
  13   2.0000      -0.612846       -16.6764 
  14   2.0000      -0.593247       -16.1431 
  15   2.0000      -0.572781       -15.5862 
  16   2.0000      -0.473890       -12.8952 
  17   2.0000      -0.457510       -12.4495 
  18   2.0000      -0.431719       -11.7477 
  19   2.0000      -0.419783       -11.4229 
  20   2.0000      -0.404543       -11.0082 
  21   2.0000      -0.374430       -10.1888 
  22   2.0000      -0.341079        -9.2812 
  23   2.0000      -0.303337        -8.2542 
  24   2.0000      -0.273824        -7.4511 
  25   2.0000      -0.270336        -7.3562 
  26   2.0000      -0.246322        -6.7028 
  27   2.0000      -0.228956        -6.2302 
  28   2.0000      -0.212219        -5.7748 
  29   2.0000      -0.202374        -5.5069 
  30   0.0000      -0.193290        -5.2597 
  31   0.0000      -0.176194        -4.7945 
  32   0.0000      -0.155311        -4.2262 
  33   0.0000      -0.147282        -4.0077 
  34   0.0000      -0.126763        -3.4494 
  35   0.0000      -0.116722        -3.1762 
  36   0.0000      -0.100920        -2.7462 
  37   0.0000      -0.086419        -2.3516 
  38   0.0000      -0.073123        -1.9898 
  39   0.0000      -0.055916        -1.5215 
  40   0.0000       0.026721         0.7271 
*Only the first 10 virtual orbitals were printed.

                    ********************************
                    * MULLIKEN POPULATION ANALYSIS *
                    ********************************

-----------------------
MULLIKEN ATOMIC CHARGES
-----------------------
   0 B :    0.311283
   1 B :   -0.335823
   2 B :    0.463110
   3 B :    0.070591
   4 B :   -0.214494
   5 B :    0.615707
   6 B :   -0.346899
   7 B :    0.193005
   8 B :   -0.370259
   9 B :   -0.251731
  10 B :   -0.140480
  11 B :    0.005989
Sum of atomic charges:    0.0000000

--------------------------------
MULLIKEN REDUCED ORBITAL CHARGES
--------------------------------
  0 B s       :     2.300856  s :     2.300856
      pz      :     0.679396  p :     2.324664
      px      :     0.747675
      py      :     0.897593
      dz2     :     0.016360  d :     0.063197
      dxz     :     0.010557
      dyz     :     0.012533
      dx2y2   :     0.016015
      dxy     :     0.007732

  1 B s       :     3.326434  s :     3.326434
      pz      :     0.672764  p :     1.947912
      px      :     0.535302
      py      :     0.739847
      dz2     :     0.015518  d :     0.061478
      dxz     :     0.012089
      dyz     :     0.009362
      dx2y2   :     0.013842
      dxy     :     0.010666

  2 B s       :     2.356384  s :     2.356384
      pz      :     0.812767  p :     2.110435
      px      :     0.693219
      py      :     0.604448
      dz2     :     0.016008  d :     0.070072
      dxz     :     0.013959
      dyz     :     0.013576
      dx2y2   :     0.014283
      dxy     :     0.012246

  3 B s       :     2.726952  s :     2.726952
      pz      :     0.662774  p :     2.145031
      px      :     0.682120
      py      :     0.800137
      dz2     :     0.016006  d :     0.057425
      dxz     :     0.011148
      dyz     :     0.010244
      dx2y2   :     0.012288
      dxy     :     0.007738

  4 B s       :     2.958734  s :     2.958734
      pz      :     0.784610  p :     2.198865
      px      :     0.626519
      py      :     0.787736
      dz2     :     0.014658  d :     0.056894
      dxz     :     0.011219
      dyz     :     0.009156
      dx2y2   :     0.012339
      dxy     :     0.009522

  5 B s       :     1.907962  s :     1.907962
      pz      :     0.805567  p :     2.403867
      px      :     0.805107
      py      :     0.793193
      dz2     :     0.017562  d :     0.072464
      dxz     :     0.013884
      dyz     :     0.016634
      dx2y2   :     0.012899
      dxy     :     0.011485

  6 B s       :     3.139166  s :     3.139166
      pz      :     0.671720  p :     2.144666
      px      :     0.802152
      py      :     0.670793
      dz2     :     0.014210  d :     0.063067
      dxz     :     0.010892
      dyz     :     0.010902
      dx2y2   :     0.015854
      dxy     :     0.011208

  7 B s       :     2.492028  s :     2.492028
      pz      :     0.756448  p :     2.256024
      px      :     0.762922
      py      :     0.736653
      dz2     :     0.012820  d :     0.058943
      dxz     :     0.011043
      dyz     :     0.009221
      dx2y2   :     0.014898
      dxy     :     0.010961

  8 B s       :     3.194259  s :     3.194259
      pz      :     0.903097  p :     2.109608
      px      :     0.579158
      py      :     0.627353
      dz2     :     0.013741  d :     0.066392
      dxz     :     0.014958
      dyz     :     0.015806
      dx2y2   :     0.011483
      dxy     :     0.010403

  9 B s       :     3.177131  s :     3.177131
      pz      :     0.586980  p :     2.023612
      px      :     0.725784
      py      :     0.710847
      dz2     :     0.012021  d :     0.050989
      dxz     :     0.010033
      dyz     :     0.008447
      dx2y2   :     0.012664
      dxy     :     0.007823

 10 B s       :     3.458161  s :     3.458161
      pz      :     0.548190  p :     1.638002
      px      :     0.498059
      py      :     0.591753
      dz2     :     0.010889  d :     0.044316
      dxz     :     0.008580
      dyz     :     0.005730
      dx2y2   :     0.009769
      dxy     :     0.009348

 11 B s       :     3.146895  s :     3.146895
      pz      :     0.677976  p :     1.799540
      px      :     0.585915
      py      :     0.535649
      dz2     :     0.008475  d :     0.047576
      dxz     :     0.010150
      dyz     :     0.010200
      dx2y2   :     0.010330
      dxy     :     0.008421



                     *******************************
                     * LOEWDIN POPULATION ANALYSIS *
                     *******************************

----------------------
LOEWDIN ATOMIC CHARGES
----------------------
   0 B :   -0.017885
   1 B :   -0.005334
   2 B :    0.075857
   3 B :   -0.015763
   4 B :   -0.037064
   5 B :   -0.063716
   6 B :   -0.023539
   7 B :    0.006602
   8 B :   -0.036860
   9 B :    0.089235
  10 B :    0.014017
  11 B :    0.014449

-------------------------------
LOEWDIN REDUCED ORBITAL CHARGES
-------------------------------
  0 B s       :     2.614239  s :     2.614239
      pz      :     0.695178  p :     2.252634
      px      :     0.781787
      py      :     0.775670
      dz2     :     0.037929  d :     0.151012
      dxz     :     0.028143
      dyz     :     0.023645
      dx2y2   :     0.038634
      dxy     :     0.022660

  1 B s       :     2.709578  s :     2.709578
      pz      :     0.691944  p :     2.152064
      px      :     0.671399
      py      :     0.788721
      dz2     :     0.035597  d :     0.143692
      dxz     :     0.021379
      dyz     :     0.026632
      dx2y2   :     0.030163
      dxy     :     0.029920

  2 B s       :     2.651514  s :     2.651514
      pz      :     0.839628  p :     2.104610
      px      :     0.670353
      py      :     0.594630
      dz2     :     0.035516  d :     0.168019
      dxz     :     0.038716
      dyz     :     0.038405
      dx2y2   :     0.035104
      dxy     :     0.020278

  3 B s       :     2.673923  s :     2.673923
      pz      :     0.719913  p :     2.202784
      px      :     0.736540
      py      :     0.746331
      dz2     :     0.036251  d :     0.139055
      dxz     :     0.032356
      dyz     :     0.017496
      dx2y2   :     0.028800
      dxy     :     0.024152

  4 B s       :     2.630105  s :     2.630105
      pz      :     0.743850  p :     2.271125
      px      :     0.707112
      py      :     0.820163
      dz2     :     0.035577  d :     0.135833
      dxz     :     0.019110
      dyz     :     0.025338
      dx2y2   :     0.027465
      dxy     :     0.028343

  5 B s       :     2.588355  s :     2.588355
      pz      :     0.863871  p :     2.297214
      px      :     0.715226
      py      :     0.718116
      dz2     :     0.044336  d :     0.178147
      dxz     :     0.040550
      dyz     :     0.043497
      dx2y2   :     0.029054
      dxy     :     0.020710

  6 B s       :     2.678213  s :     2.678213
      pz      :     0.696104  p :     2.188485
      px      :     0.808286
      py      :     0.684095
      dz2     :     0.034102  d :     0.156841
      dxz     :     0.029942
      dyz     :     0.019802
      dx2y2   :     0.040266
      dxy     :     0.032729

  7 B s       :     2.638222  s :     2.638222
      pz      :     0.660117  p :     2.211827
      px      :     0.754213
      py      :     0.797497
      dz2     :     0.030885  d :     0.143349
      dxz     :     0.020911
      dyz     :     0.026469
      dx2y2   :     0.034276
      dxy     :     0.030808

  8 B s       :     2.625887  s :     2.625887
      pz      :     0.929198  p :     2.236568
      px      :     0.591146
      py      :     0.716225
      dz2     :     0.036510  d :     0.174404
      dxz     :     0.046131
      dyz     :     0.046133
      dx2y2   :     0.025704
      dxy     :     0.019927

  9 B s       :     2.735806  s :     2.735806
      pz      :     0.601822  p :     2.062857
      px      :     0.772545
      py      :     0.688490
      dz2     :     0.024641  d :     0.112102
      dxz     :     0.027387
      dyz     :     0.013018
      dx2y2   :     0.025526
      dxy     :     0.021531

 10 B s       :     2.926462  s :     2.926462
      pz      :     0.609771  p :     1.960330
      px      :     0.676330
      py      :     0.674230
      dz2     :     0.022358  d :     0.099191
      dxz     :     0.013761
      dyz     :     0.017102
      dx2y2   :     0.021346
      dxy     :     0.024625

 11 B s       :     2.785944  s :     2.785944
      pz      :     0.761292  p :     2.085869
      px      :     0.620170
      py      :     0.704407
      dz2     :     0.015967  d :     0.113738
      dxz     :     0.028998
      dyz     :     0.031021
      dx2y2   :     0.023457
      dxy     :     0.014296



                      *****************************
                      * MAYER POPULATION ANALYSIS *
                      *****************************

  NA   - Mulliken gross atomic population
  ZA   - Total nuclear charge
  QA   - Mulliken gross atomic charge
  VA   - Mayer's total valence
  BVA  - Mayer's bonded valence
  FA   - Mayer's free valence

  ATOM       NA         ZA         QA         VA         BVA        FA
  0 B      4.6887     5.0000     0.3113     3.6502     3.6502     0.0000
  1 B      5.3358     5.0000    -0.3358     4.0028     4.0028     0.0000
  2 B      4.5369     5.0000     0.4631     3.4774     3.4774    -0.0000
  3 B      4.9294     5.0000     0.0706     3.8065     3.8065     0.0000
  4 B      5.2145     5.0000    -0.2145     4.4000     4.4000    -0.0000
  5 B      4.3843     5.0000     0.6157     3.2108     3.2108    -0.0000
  6 B      5.3469     5.0000    -0.3469     4.1220     4.1220     0.0000
  7 B      4.8070     5.0000     0.1930     3.8349     3.8349     0.0000
  8 B      5.3703     5.0000    -0.3703     3.9463     3.9463    -0.0000
  9 B      5.2517     5.0000    -0.2517     3.9154     3.9154     0.0000
 10 B      5.1405     5.0000    -0.1405     3.0285     3.0285     0.0000
 11 B      4.9940     5.0000     0.0060     3.6315     3.6315     0.0000

  Mayer bond orders larger than 0.100000
B(  0-B ,  1-B ) :   0.5350 B(  0-B ,  2-B ) :   0.6246 B(  0-B ,  4-B ) :   0.1235 
B(  0-B ,  5-B ) :   0.2089 B(  0-B ,  6-B ) :   0.3628 B(  0-B ,  7-B ) :   0.6066 
B(  0-B ,  8-B ) :   0.8115 B(  0-B ,  9-B ) :   0.1263 B(  0-B , 11-B ) :   0.1308 
B(  1-B ,  2-B ) :   0.4347 B(  1-B ,  4-B ) :   0.6241 B(  1-B ,  5-B ) :   0.4354 
B(  1-B ,  6-B ) :   0.8741 B(  1-B ,  8-B ) :   0.3734 B(  1-B ,  9-B ) :   0.2857 
B(  1-B , 10-B ) :   0.2494 B(  2-B ,  3-B ) :   0.4104 B(  2-B ,  4-B ) :   0.8453 
B(  2-B ,  5-B ) :   0.2190 B(  2-B ,  7-B ) :   0.1597 B(  2-B ,  8-B ) :   0.4157 
B(  2-B , 11-B ) :   0.1740 B(  3-B ,  4-B ) :   0.9272 B(  3-B ,  5-B ) :   0.1490 
B(  3-B ,  6-B ) :   0.1628 B(  3-B ,  8-B ) :   0.8309 B(  3-B ,  9-B ) :   0.5098 
B(  3-B , 10-B ) :   0.5320 B(  4-B ,  5-B ) :   0.3826 B(  4-B ,  6-B ) :   0.2390 
B(  4-B ,  7-B ) :   0.1500 B(  4-B ,  8-B ) :   0.1345 B(  4-B ,  9-B ) :   0.8766 
B(  5-B ,  6-B ) :   0.8425 B(  5-B ,  7-B ) :   0.1901 B(  5-B ,  9-B ) :   0.5286 
B(  5-B , 10-B ) :   0.1134 B(  5-B , 11-B ) :   0.1626 B(  6-B ,  7-B ) :   0.6244 
B(  6-B ,  9-B ) :   0.2386 B(  6-B , 10-B ) :   0.1268 B(  6-B , 11-B ) :   0.5116 
B(  7-B ,  8-B ) :   0.8155 B(  7-B , 10-B ) :   0.2963 B(  7-B , 11-B ) :   0.8670 
B(  8-B , 10-B ) :   0.4346 B(  9-B , 10-B ) :   0.3588 B(  9-B , 11-B ) :   0.8775 
B( 10-B , 11-B ) :   0.7379 

-------
TIMINGS
-------

Total SCF time: 0 days 0 hours 0 min 15 sec 

Total time                  ....      15.763 sec
Sum of individual times     ....      15.197 sec  ( 96.4%)

SCF preparation             ....       0.761 sec  (  4.8%)
Fock matrix formation       ....      11.974 sec  ( 76.0%)
  Startup                   ....       0.028 sec  (  0.2% of F)
  Split-RI-J                ....       3.562 sec  ( 29.7% of F)
  XC integration            ....       7.748 sec  ( 64.7% of F)
    XC Preparation          ....       0.000 sec  (  0.0% of XC)
    Basis function eval.    ....       1.563 sec  ( 20.2% of XC)
    Density eval.           ....       1.232 sec  ( 15.9% of XC)
    XC-Functional eval.     ....       0.175 sec  (  2.3% of XC)
    XC-Potential eval.      ....       1.603 sec  ( 20.7% of XC)
Diagonalization             ....       0.000 sec  (  0.0%)
Density matrix formation    ....       0.390 sec  (  2.5%)
Total Energy calculation    ....       0.223 sec  (  1.4%)
Population analysis         ....       0.083 sec  (  0.5%)
Orbital Transformation      ....       0.222 sec  (  1.4%)
Orbital Orthonormalization  ....       0.000 sec  (  0.0%)
DIIS solution               ....       0.900 sec  (  5.7%)
SOSCF solution              ....       0.643 sec  (  4.1%)
Finished LeanSCF after  15.8 sec

Maximum memory used throughout the entire LEANSCF-calculation: 10.2 MB


-------------------------------------------------------------------------------
                          DFT DISPERSION CORRECTION                            
                                                                               
                              DFTD3 V3.1  Rev 1                                
                          USING Becke-Johnson damping                          
-------------------------------------------------------------------------------
The BP86 functional is recognized
Active option DFTDOPT                   ...         4   

molecular C6(AA) [au] = 4219.340925 


            DFT-D V3
 parameters
 s6 scaling factor         :     1.0000 
 a1 scaling factor         :     0.3946 
 s8 scaling factor         :     3.2822 
 a2 scaling factor         :     4.8516 
 ad hoc parameters k1-k3   :    16.0000     1.3333    -4.0000 

 Edisp/kcal,au: -24.258219645682  -0.038657929578 
 E6   /kcal   :  -6.888221993 
 E8   /kcal   : -17.369997653 
 % E8         :  71.604585606 

-------------------------   ----------------
Dispersion correction           -0.038657930
-------------------------   ----------------


-------------------------   --------------------
FINAL SINGLE POINT ENERGY      -297.370935275024
-------------------------   --------------------



           ************************************************************
           *        Program running with 8 parallel MPI-processes     *
           *              working on a common directory               *
           ************************************************************
------------------------------------------------------------------------------
                         ORCA SCF GRADIENT CALCULATION
------------------------------------------------------------------------------

Nuc. rep. gradient        (SHARK) ... done (  0.0 sec)
HCore & Overlap gradient  (SHARK) ... done (  0.1 sec)
Split-RIJ-J gradient      (SHARK) ... done (  0.5 sec)
XC gradient                       ... done (  1.1 sec)
Dispersion correction             ... done (  0.1 sec)

-------------------
DISPERSION GRADIENT
-------------------

   1   B   :   -0.000263169    0.000825361   -0.000057486
   2   B   :    0.000095676   -0.000155783   -0.000109704
   3   B   :    0.000962238   -0.000432097    0.000069470
   4   B   :   -0.000220477    0.000265757   -0.000193540
   5   B   :   -0.000013974   -0.000206272    0.000069576
   6   B   :   -0.000244470    0.000240501   -0.000064443
   7   B   :    0.000941720   -0.000572456    0.000752773
   8   B   :   -0.000449930   -0.001805913    0.001450398
   9   B   :   -0.000094303    0.002272361   -0.000429974
  10   B   :    0.000102611    0.000082384   -0.000013607
  11   B   :   -0.000280368   -0.000748151   -0.000754915
  12   B   :   -0.000535554    0.000234307   -0.000718549

Difference to translation invariance:
           :   -0.0000000000   -0.0000000000    0.0000000000

Difference to rotation invariance:
           :    0.0000000000    0.0000000000    0.0000000000

Norm of the Dispersion gradient    ...    0.0041270450
RMS gradient                       ...    0.0006878408
MAX gradient                       ...    0.0022723614

------------------
CARTESIAN GRADIENT
------------------

   1   B   :    0.112707766   -0.053987267    0.112587026
   2   B   :    0.003880457    0.075797078    0.023559192
   3   B   :   -0.058411346    0.029958948    0.056068015
   4   B   :    0.029742389   -0.049805546   -0.047449781
   5   B   :   -0.028869158   -0.039160995   -0.050217521
   6   B   :    0.032451705   -0.024904029   -0.068459053
   7   B   :   -0.050269417   -0.014601987    0.034564526
   8   B   :   -0.017415295    0.018258475   -0.015225634
   9   B   :   -0.055298647    0.038372793   -0.044666000
  10   B   :   -0.035942490    0.028533581    0.026954025
  11   B   :    0.029796859   -0.040985866    0.024607574
  12   B   :    0.037627177    0.032524816   -0.052322369

Difference to translation invariance:
           :   -0.0000000000   -0.0000000000    0.0000000000

Difference to rotation invariance:
           :   -0.0003522281   -0.0003688823   -0.0000421926

Norm of the Cartesian gradient     ...    0.2854352116
RMS gradient                       ...    0.0475725353
MAX gradient                       ...    0.1127077660

-------
TIMINGS
-------

Total SCF gradient time     ....        1.675 sec

Densities                   ....       0.001 sec  (  0.1%)
One electron gradient       ....       0.071 sec  (  4.2%)
RI-J Coulomb gradient       ....       0.498 sec  ( 29.7%)
XC gradient                 ....       1.051 sec  ( 62.7%)

Maximum memory used throughout the entire SCFGRAD-calculation: 29.8 MB
------------------------------------------------------------------------------
                         ORCA GEOMETRY RELAXATION STEP
------------------------------------------------------------------------------

Reading the OPT-File                    .... done
Getting information on internals        .... done
Copying old internal coords+grads       .... done
Making the new internal coordinates     .... (2022 redundants) done
Validating the new internal coordinates .... (2022 redundants) done
Calculating the B-matrix                .... done
Calculating the G,G- and P matrices     .... done
Transforming gradient to internals      .... done
Projecting the internal gradient        .... done
Number of atoms                         ....  12
Number of internal coordinates          .... 221
Current Energy                          ....  -297.370935275 Eh
Current gradient norm                   ....     0.285435212 Eh/bohr
Maximum allowed component of the step   ....  0.300
Current trust radius                    ....  0.300
Evaluating the initial hessian          ....  (Almloef) done
Projecting the Hessian                  .... done
Forming the augmented Hessian           .... done
Diagonalizing the augmented Hessian     .... done
Last element of RFO vector              ....  0.887355821
Lowest eigenvalues of augmented Hessian:
 -0.067998839  0.029642918  0.038366089  0.049471701  0.055112736
Length of the computed step             ....  0.519617138
Warning: the length of the step is outside the trust region - taking restricted step instead
The input lambda is                     ....     0.028107
   iter:   5  x=    0.020040  g=  990.407424 f(x)=     3.547123
   iter:  10  x=   -0.185094  g=    1.331027 f(x)=     0.093670
   iter:  15  x=   -0.239350  g=    0.417110 f(x)=     0.000000
The output lambda is                    ....    -0.239350 (16 iterations)
The final length of the internal step   ....  0.300000000
Converting the step to Cartesian space:
 Initial RMS(Int)=    0.0201801838
Transforming coordinates:
 Iter   0:  RMS(Cart)=    0.0301511515 RMS(Int)=    0.0201812415
done
Storing new coordinates                 .... done

                                .--------------------.
          ----------------------|Geometry convergence|-------------------------
          Item                value                   Tolerance       Converged
          ---------------------------------------------------------------------
          RMS gradient        0.0097004211            0.0001000000      NO
          MAX gradient        0.0509407148            0.0003000000      NO
          RMS step            0.0201801838            0.0020000000      NO
          MAX step            0.1013777318            0.0040000000      NO
          -------------------------------------------------------------------------
          ........................................................
          Max(Bonds)      0.0536      Max(Angles)    2.27
          Max(Dihed)        2.96      Max(Improp)    0.00
          ---------------------------------------------------------------------

The optimization has not yet converged - more geometry cycles are needed


    ---------------------------------------------------------------------------
                         Redundant Internal Coordinates
                            (Angstroem and degrees)

        Definition                    Value    dE/dq     Step     New-Value
    ----------------------------------------------------------------------------
     1. B(B   1,B   0)                1.8911  0.028789 -0.0352    1.8560   
     2. B(B   2,B   0)                1.7998  0.009694 -0.0164    1.7834   
     3. B(B   2,B   1)                1.7301  0.012134 -0.0142    1.7158   
     4. B(B   3,B   2)                1.8107 -0.014306  0.0026    1.8133   
     5. B(B   4,B   3)                1.8003  0.019608 -0.0320    1.7684   
     6. B(B   4,B   2)                1.5316 -0.035865  0.0307    1.5623   
     7. B(B   5,B   1)                1.5563 -0.043193  0.0350    1.5912   
     8. B(B   5,B   4)                1.7136  0.007499 -0.0100    1.7036   
     9. B(B   6,B   5)                1.5266 -0.027863  0.0215    1.5481   
    10. B(B   6,B   1)                1.6430 -0.025699  0.0210    1.6641   
    11. B(B   7,B   6)                1.6111  0.008407 -0.0075    1.6035   
    12. B(B   7,B   0)                1.6913 -0.010664  0.0073    1.6986   
    13. B(B   8,B   7)                2.0012 -0.004692 -0.0059    1.9953   
    14. B(B   8,B   3)                1.5375 -0.013119  0.0158    1.5534   
    15. B(B   8,B   0)                1.4095 -0.050941  0.0414    1.4509   
    16. B(B   9,B   5)                1.6540  0.000995 -0.0004    1.6536   
    17. B(B   9,B   4)                1.7764  0.014498 -0.0164    1.7600   
    18. B(B  10,B   8)                1.9069 -0.003194  0.0052    1.9121   
    19. B(B  10,B   3)                1.8055  0.009698 -0.0157    1.7897   
    20. B(B  11,B  10)                1.8008  0.041976 -0.0536    1.7472   
    21. B(B  11,B   9)                1.9400  0.031278 -0.0478    1.8922   
    22. B(B  11,B   7)                1.6327 -0.007312  0.0061    1.6388   
[...]
      dxz     :     0.014583
      dyz     :     0.015397
      dx2y2   :     0.015222
      dxy     :     0.015141

  9 B s       :     2.444474  s :     2.444474
      pz      :     0.624116  p :     2.544866
      px      :     0.980439
      py      :     0.940311
      dz2     :     0.019254  d :     0.096262
      dxz     :     0.020732
      dyz     :     0.014665
      dx2y2   :     0.017046
      dxy     :     0.024565

 10 B s       :     2.623630  s :     2.623630
      pz      :     0.709704  p :     2.176439
      px      :     0.678166
      py      :     0.788569
      dz2     :     0.014052  d :     0.069122
      dxz     :     0.013811
      dyz     :     0.012903
      dx2y2   :     0.013578
      dxy     :     0.014779

 11 B s       :     2.841070  s :     2.841070
      pz      :     0.705508  p :     2.065297
      px      :     0.585505
      py      :     0.774284
      dz2     :     0.007622  d :     0.051192
      dxz     :     0.008133
      dyz     :     0.007538
      dx2y2   :     0.014382
      dxy     :     0.013518



                     *******************************
                     * LOEWDIN POPULATION ANALYSIS *
                     *******************************

----------------------
LOEWDIN ATOMIC CHARGES
----------------------
   0 B :   -0.017858
   1 B :    0.052236
   2 B :   -0.004704
   3 B :   -0.047906
   4 B :   -0.024882
   5 B :   -0.076269
   6 B :    0.072022
   7 B :    0.054669
   8 B :   -0.005324
   9 B :    0.100968
  10 B :   -0.025868
  11 B :   -0.077084

-------------------------------
LOEWDIN REDUCED ORBITAL CHARGES
-------------------------------
  0 B s       :     2.663817  s :     2.663817
      pz      :     0.748877  p :     2.213184
      px      :     0.823122
      py      :     0.641185
      dz2     :     0.033773  d :     0.140857
      dxz     :     0.041753
      dyz     :     0.023342
      dx2y2   :     0.017653
      dxy     :     0.024336

  1 B s       :     2.685652  s :     2.685652
      pz      :     0.797558  p :     2.113335
      px      :     0.519633
      py      :     0.796143
      dz2     :     0.035020  d :     0.148778
      dxz     :     0.020769
      dyz     :     0.040144
      dx2y2   :     0.025546
      dxy     :     0.027298

  2 B s       :     2.589461  s :     2.589461
      pz      :     0.790455  p :     2.226159
      px      :     0.785799
      py      :     0.649906
      dz2     :     0.037912  d :     0.189084
      dxz     :     0.041935
      dyz     :     0.042404
      dx2y2   :     0.038174
      dxy     :     0.028659

  3 B s       :     2.585011  s :     2.585011
      pz      :     0.758806  p :     2.287970
      px      :     0.827189
      py      :     0.701975
      dz2     :     0.030832  d :     0.174925
      dxz     :     0.045192
      dyz     :     0.033653
      dx2y2   :     0.031223
      dxy     :     0.034026

  4 B s       :     2.595491  s :     2.595491
      pz      :     0.753936  p :     2.251507
      px      :     0.710831
      py      :     0.786740
      dz2     :     0.041431  d :     0.177884
      dxz     :     0.024917
      dyz     :     0.038314
      dx2y2   :     0.033986
      dxy     :     0.039235

  5 B s       :     2.682423  s :     2.682423
      pz      :     0.774778  p :     2.262329
      px      :     0.689936
      py      :     0.797615
      dz2     :     0.019492  d :     0.131518
      dxz     :     0.020229
      dyz     :     0.025035
      dx2y2   :     0.038145
      dxy     :     0.028617

  6 B s       :     2.775742  s :     2.775742
      pz      :     0.501828  p :     2.035291
      px      :     0.964933
      py      :     0.568530
      dz2     :     0.014859  d :     0.116944
      dxz     :     0.023168
      dyz     :     0.024614
      dx2y2   :     0.022952
      dxy     :     0.031351

  7 B s       :     2.685783  s :     2.685783
      pz      :     0.793418  p :     2.110619
      px      :     0.542849
      py      :     0.774352
      dz2     :     0.035237  d :     0.148929
      dxz     :     0.021532
      dyz     :     0.038977
      dx2y2   :     0.027689
      dxy     :     0.025494

  8 B s       :     2.589870  s :     2.589870
      pz      :     0.790475  p :     2.226536
      px      :     0.804086
      py      :     0.631975
      dz2     :     0.038035  d :     0.188919
      dxz     :     0.040547
      dyz     :     0.043203
      dx2y2   :     0.036034
      dxy     :     0.031100

  9 B s       :     2.559743  s :     2.559743
      pz      :     0.564097  p :     2.090240
      px      :     0.784898
      py      :     0.741245
      dz2     :     0.042905  d :     0.249048
      dxz     :     0.052804
      dyz     :     0.037230
      dx2y2   :     0.047020
      dxy     :     0.069088

 10 B s       :     2.595348  s :     2.595348
      pz      :     0.756307  p :     2.252213
      px      :     0.718243
      py      :     0.777663
      dz2     :     0.040763  d :     0.178306
      dxz     :     0.027019
      dyz     :     0.037186
      dx2y2   :     0.032148
      dxy     :     0.041190

 11 B s       :     2.682038  s :     2.682038
      pz      :     0.772325  p :     2.263453
      px      :     0.670704
      py      :     0.820424
      dz2     :     0.019727  d :     0.131593
      dxz     :     0.021726
      dyz     :     0.023642
      dx2y2   :     0.037564
      dxy     :     0.028934



                      *****************************
                      * MAYER POPULATION ANALYSIS *
                      *****************************

  NA   - Mulliken gross atomic population
  ZA   - Total nuclear charge
  QA   - Mulliken gross atomic charge
  VA   - Mayer's total valence
  BVA  - Mayer's bonded valence
  FA   - Mayer's free valence

  ATOM       NA         ZA         QA         VA         BVA        FA
  0 B      4.9878     5.0000     0.0122     4.1211     4.1211    -0.0000
  1 B      5.2164     5.0000    -0.2164     4.2754     4.2754    -0.0000
  2 B      4.8362     5.0000     0.1638     3.9609     3.9609    -0.0000
  3 B      4.9985     5.0000     0.0015     4.2660     4.2660    -0.0000
  4 B      4.8704     5.0000     0.1296     4.0468     4.0468    -0.0000
  5 B      4.9587     5.0000     0.0413     4.0415     4.0415    -0.0000
  6 B      5.1636     5.0000    -0.1636     3.6204     3.6204    -0.0000
  7 B      5.2197     5.0000    -0.2197     4.2706     4.2706    -0.0000
  8 B      4.8363     5.0000     0.1637     3.9628     3.9628     0.0000
  9 B      5.0856     5.0000    -0.0856     3.8926     3.8926     0.0000
 10 B      4.8692     5.0000     0.1308     4.0434     4.0434    -0.0000
 11 B      4.9576     5.0000     0.0424     4.0386     4.0386    -0.0000

  Mayer bond orders larger than 0.100000
B(  0-B ,  1-B ) :   1.0885 B(  0-B ,  2-B ) :   0.5319 B(  0-B ,  3-B ) :   0.3098 
B(  0-B ,  4-B ) :   0.1482 B(  0-B ,  5-B ) :   0.1062 B(  0-B ,  7-B ) :   1.0876 
B(  0-B ,  8-B ) :   0.5326 B(  0-B , 10-B ) :   0.1482 B(  0-B , 11-B ) :   0.1055 
B(  1-B ,  2-B ) :   0.5869 B(  1-B ,  3-B ) :   0.1420 B(  1-B ,  4-B ) :   0.5395 
B(  1-B ,  5-B ) :   0.9517 B(  1-B ,  6-B ) :   0.2318 B(  1-B ,  7-B ) :   0.3020 
B(  1-B ,  8-B ) :   0.1638 B(  1-B ,  9-B ) :   0.1507 B(  2-B ,  3-B ) :   0.5519 
B(  2-B ,  4-B ) :   0.6715 B(  2-B ,  5-B ) :   0.1174 B(  2-B ,  7-B ) :   0.1636 
B(  2-B ,  8-B ) :   0.8138 B(  2-B ,  9-B ) :   0.1740 B(  2-B , 10-B ) :   0.2038 
B(  3-B ,  4-B ) :   0.7674 B(  3-B ,  5-B ) :   0.1744 B(  3-B ,  7-B ) :   0.1409 
B(  3-B ,  8-B ) :   0.5516 B(  3-B ,  9-B ) :   0.6052 B(  3-B , 10-B ) :   0.7670 
B(  3-B , 11-B ) :   0.1745 B(  4-B ,  5-B ) :   0.5874 B(  4-B ,  8-B ) :   0.2053 
B(  4-B ,  9-B ) :   0.5735 B(  4-B , 10-B ) :   0.2206 B(  4-B , 11-B ) :   0.1853 
B(  5-B ,  6-B ) :   1.1824 B(  5-B ,  9-B ) :   0.4884 B(  5-B , 10-B ) :   0.1842 
B(  5-B , 11-B ) :   0.1299 B(  6-B ,  7-B ) :   0.2343 B(  6-B ,  9-B ) :   0.4529 
B(  6-B , 11-B ) :   1.1818 B(  7-B ,  8-B ) :   0.5869 B(  7-B ,  9-B ) :   0.1518 
B(  7-B , 10-B ) :   0.5387 B(  7-B , 11-B ) :   0.9457 B(  8-B ,  9-B ) :   0.1724 
B(  8-B , 10-B ) :   0.6735 B(  8-B , 11-B ) :   0.1176 B(  9-B , 10-B ) :   0.5711 
B(  9-B , 11-B ) :   0.4923 B( 10-B , 11-B ) :   0.5876 

-------
TIMINGS
-------

Total SCF time: 0 days 0 hours 0 min 4 sec 

Total time                  ....       4.759 sec
Sum of individual times     ....       4.244 sec  ( 89.2%)

SCF preparation             ....       0.589 sec  ( 12.4%)
Fock matrix formation       ....       2.841 sec  ( 59.7%)
  Startup                   ....       0.007 sec  (  0.2% of F)
  Split-RI-J                ....       1.015 sec  ( 35.7% of F)
  XC integration            ....       2.026 sec  ( 71.3% of F)
    XC Preparation          ....       0.000 sec  (  0.0% of XC)
    Basis function eval.    ....       0.449 sec  ( 22.1% of XC)
    Density eval.           ....       0.336 sec  ( 16.6% of XC)
    XC-Functional eval.     ....       0.054 sec  (  2.7% of XC)
    XC-Potential eval.      ....       0.414 sec  ( 20.4% of XC)
Diagonalization             ....       0.000 sec  (  0.0%)
Density matrix formation    ....       0.049 sec  (  1.0%)
Total Energy calculation    ....       0.026 sec  (  0.5%)
Population analysis         ....       0.346 sec  (  7.3%)
Orbital Transformation      ....       0.128 sec  (  2.7%)
Orbital Orthonormalization  ....       0.000 sec  (  0.0%)
DIIS solution               ....       0.020 sec  (  0.4%)
SOSCF solution              ....       0.245 sec  (  5.2%)
Finished LeanSCF after   5.0 sec

Maximum memory used throughout the entire LEANSCF-calculation: 12.2 MB


-------------------------------------------------------------------------------
                          DFT DISPERSION CORRECTION                            
                                                                               
                              DFTD3 V3.1  Rev 1                                
                          USING Becke-Johnson damping                          
-------------------------------------------------------------------------------
The BP86 functional is recognized
Active option DFTDOPT                   ...         4   

molecular C6(AA) [au] = 4095.055355 


            DFT-D V3
 parameters
 s6 scaling factor         :     1.0000 
 a1 scaling factor         :     0.3946 
 s8 scaling factor         :     3.2822 
 a2 scaling factor         :     4.8516 
 ad hoc parameters k1-k3   :    16.0000     1.3333    -4.0000 

 Edisp/kcal,au: -23.635306813287  -0.037665254899 
 E6   /kcal   :  -6.718785589 
 E8   /kcal   : -16.916521224 
 % E8         :  71.573097645 

-------------------------   ----------------
Dispersion correction           -0.037665255
-------------------------   ----------------


-------------------------   --------------------
FINAL SINGLE POINT ENERGY      -297.666006293531
-------------------------   --------------------

                                *** OPTIMIZATION RUN DONE ***



           ************************************************************
           *        Program running with 8 parallel MPI-processes     *
           *              working on a common directory               *
           ************************************************************

------------------------------------------------------------------------------
                              ORCA PROPERTY CALCULATIONS
------------------------------------------------------------------------------

GBWName                                 ... cuboctahedron_nn1.70_perturb1.gbw
Number of atoms                         ...     12
Number of basis functions               ...    168
Max core memory                         ...   2500 MB

Electric properties:
Dipole moment                           ... YES
Quadrupole moment                       ...  NO
Static polarizability (Dipole/Dipole)   ...  NO
Static polarizability (Dipole/Quad.)    ...  NO
Static polarizability (Quad./Quad.)     ...  NO
Static polarizability (Velocity)        ...  NO
Static hyperpolarizability              ...  NO

Atomic electric properties:
Dipole moment                           ...  NO
Quadrupole moment                       ...  NO
Static polarizability                   ...  NO

Choice of electric origin               ... Center of mass
Position of electric origin             ...    -0.032320     0.026208     0.053300

General magnetic properties:
Magnetizability                         ...  NO

EPR properties:
g-Tensor (aka g-matrix)                 ...  NO
Zero-Field splitting spin-orbit         ...  NO
Zero-field splitting spin-spin          ...  NO
Hyperfine couplings                     ...  NO (   0 nuclei)
Quadrupole couplings                    ...  NO (   0 nuclei)
Contact density                         ...  NO (   0 nuclei)

NMR properties:
Chemical shifts                         ...  NO (   0 nuclei)
Spin-rotation constants                 ...  NO (   0 nuclei)
Spin-spin couplings                     ...  NO (   0 nuclei,    0 pairs)

Choice of magnetic origin               ... GIAO
Position of magnetic origin             ...     0.000000     0.000000     0.000000

Properties with geometric perturbations:
SCF Hessian                             ...  NO
IR spectrum                             ...  NO
VCD spectrum                            ...  NO
X-ray spectroscopy properties:
SCF XES/XAS/RIXS spectra                ...  NO

SCF SOC stabilization energy            ...  NO
Diagonal Born-Oppenheimer correction    ...  NO

-------------
DIPOLE MOMENT
-------------

Method             : SCF
Type of density    : Electron Density
Multiplicity       :   1
Irrep              :   0
Energy             :  -297.6283410386319588 Eh
Basis              : AO
                                X                 Y                 Z
Electronic contribution:     -0.010261226      -0.372589321       0.403722772
Nuclear contribution   :      0.000000000       0.000000000      -0.000000000
                        -----------------------------------------
Total Dipole Moment    :     -0.010261226      -0.372589321       0.403722772
                        -----------------------------------------
Magnitude (a.u.)       :      0.549472631
Magnitude (Debye)      :      1.396648434



--------------------
Rotational spectrum 
--------------------
 
Rotational constants in cm-1:             0.074002             0.069648             0.058229 
Rotational constants in MHz :          2218.533592          2088.006720          1745.650299 

Dipole components along the rotational axes: 
x,y,z [a.u.] :    -0.360478     0.003853     0.414682 
x,y,z [Debye]:    -0.916261     0.009793     1.054038 

 

Dipole moment calculation done in   0.2 sec 

Maximum memory used throughout the entire PROP-calculation: 9.8 MB

--------------------------------
SUGGESTED CITATIONS FOR THIS RUN
--------------------------------

Below you find a list of papers that are relevant to this ORCA run
We neither can nor want to force you to cite these papers, but we appreciate if you do
You receive ORCA, which is the product of decades of hard work by many enthusiastic individuals, for free
The only thing we kindly ask in return is that you cite our papers,
We deeply appreciate it, if you show your appreciation for ORCA by not just citing the generic ORCA reference.

Please note that relegating all ORCA citations to the supporting information does *not* help us.
SI sections are not indexed - citations you put there will not count into any citation statistics
But we need these citations in order to attract the funding resources that allow us to do what we are doing

Therefore, if you are a happy ORCA user, please consider citing a few of the papers listed below in the main body of your paper

In addition to the list printed below, the program has created the file cuboctahedron_nn1.70_perturb1.bibtex that contains the list in bibtex format
You can import this file easily into all common literature databanks and citation aid programs

It goes without saying that in many instances, there are alternative algorithms to achieve similar
results as the ones you have gotten from ORCA. It is, of course, also the case that in some instances
ORCA just re-implements algorithms worked out by others. We are fully aware of that and we are also
fully appreciative of our colleagues work. Hence this citation list should not be read as indicating
that the listed papers, which are focused on our own work, are the only ones worth citing. It simply
meant to make it easier for users to cite ORCA specific papers. It is not a substitute for doing your
own literature research and citing the relevant literature in a scientifically appropriate manner.

List of essential papers. We consider these as the minimum necessary citations

  1. Neese, F.
     Software update: the ORCA program system, version 6.0
     WIRES Comput. Molec. Sci. 2025 15(1), e70019
     doi.org/10.1002/wcms.70019

List of papers to cite with high priority. The work reported in these papers was absolutely
necessary for this run to complete.
Our perspective: the developers of density functionals and basis sets usually get cited in chemistry papers
Good! But without the algorithms to do something with them, the functionals or basis sets would not do anything.
Hence, in our opinion, the algorithm design and method developments papers are equally worthy of getting cited

  1. Neese, F.
     An improvement of the resolution of the identity approximation for the formation of the Coulomb matrix
     J. Comp. Chem. 2003 24(14), 1740-1747
     doi.org/10.1002/jcc.10318
  2. Grimme, S.; Antony, J.; Ehrlich, S.; Krieg, H.
     A consistent and accurate ab initio parametrization of density functional dispersion correction (DFT-D) for the 94 elements H-Pu
     J. Chem. Phys. 2010 132 , 154104
     doi.org/10.1063/1.3382344
  3. Grimme, S.; Ehrlich, S.; Goerigk, L.
     Effect of the damping function in dispersion corrected density functional theory
     J. Comput. Chem. 2011 32(7), 1456-1465
     doi.org/10.1002/jcc.21759
  4. Neese, F.
     The SHARK Integral Generation and Digestion System
     J. Comp. Chem. 2022 44(3), 381
     doi.org/10.1002/jcc.26942

List of suggested additional citations. These are papers that are important in the 'surrounding' of 
of this run, or papers that preceded the highly important papers. If you like your results we are grateful for a citation.

  1. Neese, F.
     The ORCA program system
     WIRES Comput. Molec. Sci. 2012 2(1), 73-78
     doi.org/10.1002/wcms.81
  2. Neese, F.
     Software update: the ORCA program system, version 4.0
     WIRES Comput. Molec. Sci. 2018 8(1), 1-6
     doi.org/10.1002/wcms.1327
  3. Neese, F.; Wennmohs, F.; Becker, U.; Riplinger, C.
     The ORCA quantum chemistry program package
     J. Chem. Phys. 2020 152(22), 224108
     doi.org/10.1063/5.0004608
  4. Neese, F.
     Software update: The ORCA program system—Version 5.0
     WIRES Comput. Molec. Sci. 2022 12(1), e1606
     doi.org/10.1002/wcms.1606

List of optional additional citations

  1. Neese, F.
     Approximate second-order SCF convergence for spin unrestricted wavefunctions
     Chem. Phys. Lett. 2000 325(1-3), 93-98
     doi.org/10.1016/s0009-2614(00)00662-x

Timings for individual modules:

Sum of individual times          ...      670.380 sec (=  11.173 min)
Startup calculation              ...       79.069 sec (=   1.318 min)  11.8 %
SCF iterations                   ...      466.437 sec (=   7.774 min)  69.6 %
Property calculations            ...        1.305 sec (=   0.022 min)   0.2 %
SCF Gradient evaluation          ...      122.747 sec (=   2.046 min)  18.3 %
Geometry relaxation              ...        0.823 sec (=   0.014 min)   0.1 %
                             ****ORCA TERMINATED NORMALLY****
TOTAL RUN TIME: 0 days 0 hours 11 minutes 50 seconds 74 msec
