
                                 *****************
                                 * O   R   C   A *
                                 *****************

                                            #,                                       
                                            ###                                      
                                            ####                                     
                                            #####                                    
                                            ######                                   
                                           ########,                                 
                                     ,,################,,,,,                         
                               ,,#################################,,                 
                          ,,##########################################,,             
                       ,#########################################, ''#####,          
                    ,#############################################,,   '####,        
                  ,##################################################,,,,####,       
                ,###########''''           ''''###############################       
              ,#####''   ,,,,##########,,,,          '''####'''          '####       
            ,##' ,,,,###########################,,,                        '##       
           ' ,,###''''                  '''############,,,                           
         ,,##''                                '''############,,,,        ,,,,,,###''
      ,#''                                            '''#######################'''  
     '                                                          ''''####''''         
             ,#######,   #######,   ,#######,      ##                                
            ,#'     '#,  ##    ##  ,#'     '#,    #''#        ,####,    ,#,          
            ##       ##  ##   ,#'  ##            #'  '#       #'       ,# #          
            ##       ##  #######   ##           ,######,      #####,      #          
            '#,     ,#'  ##    ##  '#,     ,#' ,#      #,     #,   #      #          
             '#######'   ##     ##  '#######'  #'      '#     '####' #    #          



                #########################################################
                #                        -***-                          #
                #          Department of theory and spectroscopy        #
                #                                                       #
                #                      Frank Neese                      #
                #                                                       #
                #     Directorship, Architecture, Infrastructure        #
                #                    SHARK, DRIVERS                     #
                #        Core code/Algorithms in most modules           #
                #                                                       #
                #        Max Planck Institute fuer Kohlenforschung      #
                #                Kaiser Wilhelm Platz 1                 #
                #                 D-45470 Muelheim/Ruhr                 #
                #                      Germany                          #
                #                                                       #
                #                  All rights reserved                  #
                #                        -***-                          #
                #########################################################


                         Program Version 6.1.1  -  RELEASE   -
                                (GIT: $487d211c$)
                          ($2025-11-21 10:33:24 +0100$)
                                                                         
                                  - NO-DMRG VERSION -                    
                                                                         


 With contributions from (in alphabetic order):
[Max-Planck-Institut fuer Kohlenforschung]                               
  Daniel Aravena         : Magnetic Suceptibility                        
  Michael Atanasov       : Ab Initio Ligand Field Theory (pilot matlab implementation)
  Alexander A. Auer      : GIAO ZORA, VPT2 properties, NMR spectrum      
  Ute Becker             : All parallelization in ORCA, NUMFREQ, NUMCALC 
  Giovanni Bistoni       : ED, misc. LED, open-shell LED, HFLD           
  Dmytro Bykov           : pre 5.0 version of the SCF Hessian            
  Marcos Casanova-Páez   : Triplet and SCS-CIS(D). UHF-(DLPNO)-IP/EA/STEOM-CCSD. UHF-CVS-IP/STEOM-CCSD   
  Vijay G. Chilkuri      : MRCI spin determinant printing, contributions to CSF-ICE 
  Pauline Colinet        : FMM embedding                                 
  Dipayan Datta          : RHF DLPNO-CCSD density                        
  Achintya Kumar Dutta   : EOM-CC, STEOM-CC                              
  Nicolas Foglia         : Exact transition moments, OPA infrastructure, MCD improvements    
  Dmitry Ganyushin       : Spin-Orbit,Spin-Spin,Magnetic field MRCI      
  Miquel Garcia-Rates    : C-PCM and meta-GGA Hessian, CCSD/C-PCM, Gaussian charge scheme 
  Tiago L. C. Gouveia    : GS-ROHF, GS-ROCIS                             
  Yang Guo               : DLPNO-NEVPT2, F12-NEVPT2, CIM, IAO-localization        
  Andreas Hansen         : Spin unrestricted coupled pair/coupled cluster methods 
  Ingolf Harden          : AUTO-CI MPn and infrastructure                
  Benjamin Helmich-Paris : MC-RPA, TRAH-(SCF,CASSCF), AVAS, COSX integrals, SCF dyn. polar., MC-PDFT, srDFT 
  Lee Huntington         : MR-EOM, pCC                                   
  Robert Izsak           : Overlap fitted RIJCOSX, COSX-SCS-MP3, EOM     
  Riya Kayal             : Wick's Theorem for AUTO-CI, AUTO-CI UHF-CCSDT 
  Emily Kempfer          : AUTO-CI RHF CISDT and CCSDT, approximate NEVPT4
  Christian Kollmar      : KDIIS, OOCD, Brueckner-CCSD(T), CCSD density, CASPT2, CASPT2-K, improved NEVPT2 
  Axel Koslowski         : Symmetry handling                             
  Simone Kossmann        : meta-GGA functionals, TD-DFT gradient, OOMP2, (MP2 Hessian; deprecated post 5.0) 
  Lucas Lang             : DCDCAS, Hyperfine gauge corrections, ICE-SOC+SSC
  Marvin Lechner         : AUTO-CI (C++ implementation), FIC-MRCC        
  Spencer Leger          : CASSCF response                               
  Dagmar Lenk            : GEPOL surface, SMD, ORCA-2-JSON               
  Dimitrios Liakos       : Extrapolation schemes; Compound Job, Property file
  Dimitrios Manganas     : Further ROCIS development; embedding schemes. LFT, Crystal Embedding 
  Dimitrios Pantazis     : SARC Basis sets                               
  Anastasios Papadopoulos: AUTO-CI, single reference methods and gradients 
  Taras Petrenko         : pre 6.0 DFT Hessian and TD-DFT gradient,  ECA, NRVS 
  Petra Pikulova         : Analytic Raman intensities                    
  Peter Pinski           : DLPNO-MP2, DLPNO-MP2 Gradient                 
  Shashank Vittal Rao    : ES-AILFT, MagRelax                            
  Christoph Reimann      : Effective Core Potentials                     
  Marius Retegan         : Local ZFS, SOC                                
  Christoph Riplinger    : Optimizer, TS searches, QM/MM, DLPNO-CCSD(T), (RO)-DLPNO pert. Triples 
  Michael Roemelt        : Original ROCIS implementation, recursive CI coupling coefficients
  Masaaki Saitow         : Open-shell DLPNO-CCSD energy and density      
  Barbara Sandhoefer     : DKH picture change effects                    
  Yorick L. A. Schmerwitz: GMF and freeze-and-release deltaSCF, NEB S-IDPP initial path                    
  Kantharuban Sivalingam : CASSCF convergence/infrastructure, NEVPT2, NEVPT3, NEVPT4(SD), FIC-MRCI and CEPA variants
  Bernardo de Souza      : ESD, SOC TD-DFT                               
  Georgi L. Stoychev     : AutoAux, RI-MP2 NMR, DLPNO-MP2 response, X2C  
  Van Anh Tran           : RI-MP2 g-tensors                              
  Willem Van den Heuvel  : Paramagnetic NMR                              
  Zikuan Wang            : NOTCH, Electric field optimization            
  Frank Wennmohs         : Technical directorship and infrastructure     
  Hang Xu                : AUTO-CI-Response properties                   
                                                                         
[FACCTs GmbH]                                                            
  Markus Bursch, Nicolas Foglia, Miquel Garcia-Rates, Ingolf Harden, Hagen Neugebauer, Anastasios Papadopoulos, 
  Christoph Riplinger, Bernardo de Souza, Georgi L. Stoychev                                                    
                                                                 
  APM, various basis sets, CI-OPT, improved COSX, DLPNO-Multilevel,           
  DOCKER, DRACO, updates on ESD, Fragmentator, GOAT, IRC, LR-CPCM, L-BFGS, MBIS, meta-GGA TD-DFT gradient, ML-optimized integration grids, 
  MM, NACMEs, nearIR, NEB, NEB-TS, NL-DFT gradient (VV10), 2- and 3-layer-ONIOM, interface openCOSMO-RS, QMMM,   
  Crystal-QMMM, RESP, rigid body optimization, SF, symmetry and pop. for TD-DFT, various functionals, SOLVATOR                                   
                                                                         
[Other institutions]                                                     
  V. Asgeirsson          : NEB                                           
  Christoph Bannwarth    : sTDA-DFT, sTD-DFT, PBEh-3c, B97-3c, D3        
  Giovanni Bistoni       : ETS/NOCV, ADLD/ADEX, COVALED                  
  Martin Brehm           : Molecular dynamics                            
  Ronald Cardenas        : ETS/NOCV                                      
  Martina Colucci        : COVALED                                       
  Sebastian Ehlert       : rSCAN, r2SCAN, r2SCAN-3c, D4, dhf basis sets  
  Marvin Friede          : D4 for Fr, Ra, Ac-Lr                          
  Lars Goerigk           : TD-DFT with DH, B97 family of functionals     
  Stefan Grimme          : VdW corrections, initial TS optimization, DFT functionals, gCP, sTDA/sTD-DF 
  Waldemar Hujo          : DFT-NL                                        
  H. Jonsson             : NEB                                           
  Holger Kruse           : gCP                                           
  Marcel Mueller         : wB97X-3c, vDZP basis set                      
  Hagen Neugebauer       : wr2SCAN, Native XTB                           
  Gianluca Regni         : ADLD/ADEX                                     
  Tobias Risthaus        : pre 6.0 range-separated hybrid DFT and stability analysis
  Lukas Wittmann         : regularized MP2, r2SCAN double-hybrids, wr2SCAN        
                                                                         
We gratefully acknowledge several colleagues who have allowed us to      
interface, adapt or use parts of their codes:                            
  Ed Valeev, F. Pavosevic, A. Kumar             : LibInt (2-el integral package), F12 methods 
  Garnet Chan, S. Sharma, J. Yang, R. Olivares  : DMRG                   
  Ulf Ekstrom                                   : XCFun DFT Library      
  Mihaly Kallay                                 : mrcc  (arbitrary order and MRCC methods)
  Frank Weinhold                                : gennbo (NPA and NBO analysis)           
  Simon Mueller                                 : openCOSMO-RS                            
  Christopher J. Cramer and Donald G. Truhlar   : smd solvation model                     
  S Lehtola, MJT Oliveira, MAL Marques          : LibXC Library                           
  Liviu Ungur et al                             : ANISO software                          


 Your calculation uses the libint2 library for the computation of 2-el integrals
 For citations please refer to: http://libint.valeyev.net

 Your ORCA version has been built with support for libXC version: 7.0.0
 For citations please refer to: https://libxc.gitlab.io

 This ORCA versions uses:
   CBLAS   interface :  Fast vector & matrix operations
   LAPACKE interface :  Fast linear algebra routines
   SCALAPACK package :  Parallel linear algebra routines
   Shared memory     :  Shared parallel matrices
   BLAS/LAPACK       :  OpenBLAS 0.3.29  USE64BITINT DYNAMIC_ARCH NO_AFFINITY Zen SINGLE_THREADED
        Core in use  :  Zen
   Copyright (c) 2011-2014, The OpenBLAS Project


  ***********************************
  * Starting time: Fri Apr 24 02:23:12 2026
  * Host name:     vmi3233575
  * Process ID:    1628097
  * Working dir.:  /root/b12_scan/jobs/random3_nn1.70
  ***********************************

NOTE: MaxCore=2500 MB was set to SCF,MP2,MDCI,CIPSI,MRCI,RASCI and CIS
      => If you want to overwrite this, your respective input block should be placed after the MaxCore statement
Your calculation utilizes the atom-pairwise dispersion correction
with the Becke-Johnson damping scheme (D3BJ)


================================================================================

----- Orbital basis set information -----
Your calculation utilizes the basis: def2-SVP
   F. Weigend and R. Ahlrichs, Phys. Chem. Chem. Phys. 7, 3297 (2005).

----- AuxJ basis set information -----
Your calculation utilizes the auxiliary basis: def2/J
   H-Rn: F. Weigend, Phys. Chem. Chem. Phys. 8, 1057 (2006).
   Fr-Lr: K. Eichkorn, F. Weigend, O. Treutler, R. Ahlrichs; Theor. Chem. Acc. 97, 119 (1997).

================================================================================
                                        WARNINGS
                       Please study these warnings very carefully!
================================================================================


WARNING: Geometry Optimization
  ===> : Switching off AutoStart
         For restart on a previous wavefunction, please use MOREAD

================================================================================
                                       INPUT FILE
================================================================================
NAME = random3_nn1.70.inp
|  1> ! BP86 def2-SVP def2/J RI Opt TightSCF D3BJ
|  2> ! SlowConv
|  3> 
|  4> %pal nprocs 8 end
|  5> %maxcore 2500
|  6> 
|  7> %geom
|  8>   MaxIter 300
|  9> end
| 10> 
| 11> * xyz 0 1
| 12> B      0.57564309     -2.43546273     -0.57458859
| 13> B     -0.04188080     -2.04252682      1.23077828
| 14> B     -2.23011494     -0.65615172     -0.07383399
| 15> B     -0.33188485      0.51510733      1.25030603
| 16> B      2.42951332      0.50531163     -0.34591458
| 17> B     -1.60101642      1.97094829      0.77007952
| 18> B      1.17835116      1.91219007     -0.60186243
| 19> B     -2.03450093      1.18363923     -1.41991726
| 20> B      2.30630934     -1.34999312      0.19608470
| 21> B     -0.51737306      0.67148403     -1.99089895
| 22> B      0.82436787      0.63539646      2.64405771
| 23> B     -0.55741377     -0.90994266     -1.08429043
| 24> *
| 25> 
| 26>                          ****END OF INPUT****
================================================================================

                       *****************************
                       * Geometry Optimization Run *
                       *****************************

Geometry optimization settings:
Update method            Update   .... BFGS
Choice of coordinates    CoordSys .... (2022) Redundant Internals
Initial Hessian          InHess   .... Almloef's Model
Max. no of cycles        MaxIter  .... 300

Convergence Tolerances:
Energy Change            TolE     ....  5.0000e-06 Eh
Max. Gradient            TolMAXG  ....  3.0000e-04 Eh/bohr
RMS Gradient             TolRMSG  ....  1.0000e-04 Eh/bohr
Max. Displacement        TolMAXD  ....  4.0000e-03 bohr
RMS Displacement         TolRMSD  ....  2.0000e-03 bohr
Strict Convergence                .... False

------------------------------------------------------------------------------
                        ORCA OPTIMIZATION COORDINATE SETUP
------------------------------------------------------------------------------

The optimization will be done in redundant internal coordinates (2022)
Making redundant internal coordinates   ...  (2022 redundants) done
Evaluating the initial hessian          ...  (Almloef) done
Evaluating the coordinates              ...  done
Calculating the B-matrix                .... done
Calculating the G-matrix                .... done
The number of degrees of freedom        ....  137

    -----------------------------------------------------------------
                    Redundant Internal Coordinates


    -----------------------------------------------------------------
         Definition                    Initial Value    Approx d2E/dq
    -----------------------------------------------------------------
      1. B(B   1,B   0)                  1.9481         0.107886   
      2. B(B   3,B   1)                  2.5741         0.010820   
      3. B(B   3,B   2)                  2.5939         0.010060   
      4. B(B   5,B   3)                  1.9902         0.092435   
      5. B(B   5,B   2)                  2.8301         0.010000   
      6. B(B   6,B   4)                  1.9001         0.128709   
      7. B(B   6,B   3)                  2.7682         0.010000   
      8. B(B   7,B   5)                  2.3672         0.023133   
      9. B(B   8,B   1)                  2.6579         0.010000   
     10. B(B   8,B   0)                  2.1834         0.045446   
     11. B(B   8,B   4)                  1.9368         0.112468   
     12. B(B   9,B   6)                  2.5188         0.013258   
     13. B(B   9,B   7)                  1.7000         0.268404   
     14. B(B  10,B   3)                  1.8149         0.175971   
     15. B(B  11,B   0)                  1.9674         0.100485   
     16. B(B  11,B   9)                  1.8233         0.170631   
     17. B(B  11,B   3)                  2.7444         0.010000   
     18. B(B  11,B   2)                  1.9706         0.099317   
     19. A(B   1,B   0,B  11)           84.3262         0.249553   
     20. A(B   8,B   0,B  11)           99.3492         0.221019   
     21. A(B   1,B   0,B   8)           79.8561         0.223160   
     22. A(B   0,B   1,B   3)          104.0729         0.185951   
     23. A(B   0,B   1,B   8)           53.9653         0.179429   
     24. A(B   3,B   1,B   8)           81.0017         0.142734   
     25. A(B   3,B   2,B  11)           72.4668         0.182595   
     26. A(B   5,B   2,B  11)           94.8051         0.165906   
     27. A(B   3,B   2,B   5)           42.7744         0.134802   
     28. A(B   2,B   3,B   6)          106.5931         0.137220   
     29. A(B   1,B   3,B   2)           68.2796         0.145668   
     30. A(B   2,B   3,B  10)          152.6426         0.195532   
     31. A(B  10,B   3,B  11)          137.7337         0.183000   
     32. A(B   1,B   3,B   5)          142.8304         0.182618   
     33. A(B   5,B   3,B   6)           79.4713         0.168662   
     34. A(B   2,B   3,B   5)           74.9574         0.181086   
     35. A(B   6,B   3,B  11)           74.7951         0.131548   
     36. A(B   5,B   3,B  11)           97.0174         0.170254   
     37. A(B   1,B   3,B   6)          115.7798         0.138022   
     38. A(B   1,B   3,B  10)           89.9945         0.197303   
     39. A(B   6,B   3,B  10)           97.6313         0.181158   
     40. A(B   2,B   3,B  11)           43.2107         0.138184   
     41. A(B   5,B   3,B  10)          122.8940         0.264996   
     42. A(B   1,B   3,B  11)           59.1279         0.139002   
     43. A(B   6,B   4,B   8)          134.8377         0.260411   
     44. A(B   2,B   5,B   7)           51.2963         0.144302   
     45. A(B   2,B   5,B   3)           62.2682         0.164667   
     46. A(B   3,B   5,B   7)           95.5500         0.200187   
     47. A(B   4,B   6,B   9)           98.7935         0.194651   
     48. A(B   3,B   6,B   9)           75.7054         0.140329   
     49. A(B   3,B   6,B   4)           83.9975         0.174860   
     50. A(B   5,B   7,B   9)          104.3297         0.230526   
     51. A(B   1,B   8,B   4)          114.5033         0.180284   
     52. A(B   0,B   8,B   4)          115.3326         0.224429   
     53. A(B   0,B   8,B   1)           46.1786         0.163357   
     54. A(B   6,B   9,B  11)           99.6605         0.201613   
     55. A(B   6,B   9,B   7)          105.4970         0.213772   
     56. A(B   7,B   9,B  11)           94.2838         0.311462   
     57. A(B   3,B  11,B   9)           88.3272         0.182347   
     58. A(B   2,B  11,B   3)           64.3225         0.171585   
     59. A(B   0,B  11,B   3)           97.7535         0.171804   
     60. A(B   2,B  11,B   9)           99.3171         0.266636   
     61. A(B   0,B  11,B   9)          142.0633         0.267107   
     62. A(B   0,B  11,B   2)          117.1201         0.246574   
     63. D(B   8,B   1,B   0,B  11)   -100.5806         0.010000   
     64. D(B   3,B   1,B   0,B  11)    -33.0232         0.010000   
     65. D(B   3,B   1,B   0,B   8)     67.5574         0.010000   
     66. D(B   5,B   3,B   1,B   0)     83.3676         0.010000   
     67. D(B  10,B   3,B   1,B   0)   -122.6365         0.010000   
     68. D(B  10,B   3,B   1,B   8)    -73.4598         0.010000   
     69. D(B  10,B   3,B   2,B   5)    134.7757         0.010000   
     70. D(B  11,B   3,B   2,B   5)   -118.0890         0.010000   
     71. D(B   5,B   3,B   1,B   8)    132.5443         0.010000   
     72. D(B  10,B   3,B   2,B  11)   -107.1353         0.010000   
     73. D(B   2,B   3,B   1,B   8)    123.5855         0.010000   
     74. D(B  11,B   3,B   1,B   0)     26.9329         0.010000   
     75. D(B   1,B   3,B   2,B   5)    174.4092         0.010000   
     76. D(B   1,B   3,B   2,B  11)    -67.5018         0.010000   
     77. D(B   2,B   3,B   1,B   0)     74.4089         0.010000   
     78. D(B   6,B   3,B   2,B  11)     44.2010         0.010000   
     79. D(B   5,B   3,B   2,B  11)    118.0890         0.010000   
     80. D(B   2,B   5,B   3,B  10)   -157.1389         0.010000   
     81. D(B   7,B   5,B   3,B   6)     70.0703         0.010000   
     82. D(B   7,B   5,B   3,B  11)     -2.9727         0.010000   
     83. D(B   7,B   5,B   3,B   2)    -40.4609         0.010000   
     84. D(B   7,B   5,B   3,B   1)    -49.0763         0.010000   
     85. D(B   7,B   5,B   3,B  10)    162.4002         0.010000   
     86. D(B   7,B   5,B   2,B   3)    124.1424         0.010000   
     87. D(B   7,B   5,B   2,B  11)     66.5562         0.010000   
     88. D(B   2,B   5,B   3,B   1)     -8.6154         0.010000   
     89. D(B   3,B   5,B   2,B  11)    -57.5862         0.010000   
     90. D(B   4,B   6,B   3,B  10)     62.1821         0.010000   
     91. D(B   4,B   6,B   3,B   1)    -31.5221         0.010000   
     92. D(B   4,B   6,B   3,B   5)   -175.6487         0.010000   
     93. D(B   4,B   6,B   3,B   2)   -104.9681         0.010000   
     94. D(B   3,B   6,B   4,B   8)     26.4021         0.010000   
     95. D(B   9,B   6,B   4,B   8)    -48.0831         0.010000   
     96. D(B   9,B   6,B   3,B  10)    162.8677         0.010000   
     97. D(B   9,B   6,B   3,B   5)    -74.9631         0.010000   
     98. D(B   4,B   6,B   3,B  11)    -75.3206         0.010000   
     99. D(B   9,B   7,B   5,B   2)    -87.9783         0.010000   
    100. D(B   9,B   7,B   5,B   3)    -40.5841         0.010000   
    101. D(B   1,B   8,B   4,B   6)    -12.9491         0.010000   
    102. D(B   0,B   8,B   4,B   6)     38.2855         0.010000   
    103. D(B   0,B   8,B   1,B   3)   -114.8114         0.010000   
    104. D(B   4,B   8,B   1,B   3)    -12.4365         0.010000   
    105. D(B   4,B   8,B   1,B   0)    102.3749         0.010000   
    106. D(B   1,B   8,B   0,B  11)     82.4586         0.010000   
    107. D(B   4,B   8,B   0,B  11)    -18.0093         0.010000   
    108. D(B   4,B   8,B   0,B   1)   -100.4679         0.010000   
    109. D(B   6,B   9,B   7,B   5)    -22.3676         0.010000   
    110. D(B  11,B   9,B   7,B   5)     78.9004         0.010000   
    111. D(B  11,B   9,B   6,B   3)    -39.1372         0.010000   
    112. D(B  11,B   9,B   6,B   4)     42.3163         0.010000   
    113. D(B   7,B   9,B   6,B   3)     58.0914         0.010000   
    114. D(B   7,B   9,B   6,B   4)    139.5449         0.010000   
    115. D(B   3,B  11,B   2,B   5)     36.9586         0.010000   
    116. D(B   9,B  11,B   2,B   5)    -46.6279         0.010000   
    117. D(B   9,B  11,B   2,B   3)    -83.5865         0.010000   
    118. D(B   0,B  11,B   2,B   5)    122.4818         0.010000   
    119. D(B   0,B  11,B   2,B   3)     85.5231         0.010000   
    120. D(B   3,B  11,B   0,B   1)     30.0255         0.010000   
    121. D(B   9,B  11,B   0,B   8)     48.5944         0.010000   
    122. D(B   9,B  11,B   0,B   1)    127.3072         0.010000   
    123. D(B   2,B  11,B   0,B   8)   -113.7524         0.010000   
    124. D(B   0,B  11,B   3,B   5)   -175.5634         0.010000   
    125. D(B   2,B  11,B   0,B   1)    -35.0396         0.010000   
    126. D(B   2,B  11,B   9,B   6)    101.7480         0.010000   
    127. D(B   2,B  11,B   9,B   7)     -4.7835         0.010000   
    128. D(B   0,B  11,B   9,B   6)    -62.3781         0.010000   
    129. D(B   0,B  11,B   9,B   7)   -168.9096         0.010000   
    130. D(B   2,B  11,B   3,B   1)     90.3810         0.010000   
    131. D(B   2,B  11,B   3,B  10)    139.2377         0.010000   
    132. D(B   2,B  11,B   3,B   5)    -59.1392         0.010000   
    133. D(B   0,B  11,B   3,B   6)    107.3949         0.010000   
    134. D(B   0,B  11,B   3,B   2)   -116.4241         0.010000   
    135. D(B   0,B  11,B   3,B   1)    -26.0431         0.010000   
    136. D(B   3,B  11,B   9,B   7)    -68.4192         0.010000   
    137. D(B   0,B  11,B   3,B  10)     22.8136         0.010000   
    -----------------------------------------------------------------

Number of atoms                         .... 12
Number of degrees of freedom            .... 137


         *************************************************************
         *                GEOMETRY OPTIMIZATION CYCLE   1            *
         *************************************************************
---------------------------------
CARTESIAN COORDINATES (ANGSTROEM)
---------------------------------
  B      0.575643   -2.435463   -0.574589
  B     -0.041881   -2.042527    1.230778
  B     -2.230115   -0.656152   -0.073834
  B     -0.331885    0.515107    1.250306
  B      2.429513    0.505312   -0.345915
  B     -1.601016    1.970948    0.770080
  B      1.178351    1.912190   -0.601862
  B     -2.034501    1.183639   -1.419917
  B      2.306309   -1.349993    0.196085
  B     -0.517373    0.671484   -1.990899
  B      0.824368    0.635396    2.644058
  B     -0.557414   -0.909943   -1.084290

----------------------------
CARTESIAN COORDINATES (A.U.)
----------------------------
  NO LB      ZA    FRAG     MASS         X           Y           Z
   0 B     5.0000    0    10.810    1.087808   -4.602358   -1.085815
   1 B     5.0000    0    10.810   -0.079143   -3.859816    2.325834
   2 B     5.0000    0    10.810   -4.214306   -1.239947   -0.139526
   3 B     5.0000    0    10.810   -0.627171    0.973412    2.362736
   4 B     5.0000    0    10.810    4.591115    0.954901   -0.653684
   5 B     5.0000    0    10.810   -3.025483    3.724552    1.455239
   6 B     5.0000    0    10.810    2.226761    3.613516   -1.137355
   7 B     5.0000    0    10.810   -3.844650    2.236754   -2.683255
   8 B     5.0000    0    10.810    4.358293   -2.551117    0.370546
   9 B     5.0000    0    10.810   -0.977693    1.268921   -3.762254
  10 B     5.0000    0    10.810    1.557830    1.200725    4.996545
  11 B     5.0000    0    10.810   -1.053359   -1.719542   -2.049012

--------------------------------
INTERNAL COORDINATES (ANGSTROEM)
--------------------------------
 B      0   0   0     0.000000000000     0.00000000     0.00000000
 B      1   0   0     1.948097512801     0.00000000     0.00000000
 B      2   1   0     2.900416822527    85.33781138     0.00000000
 B      2   1   3     2.574097147989   104.07285329   306.59024835
 B      4   2   1     3.189566748762    84.00816939   317.69504024
 B      4   2   1     1.990172189458   142.83041746    83.36764083
 B      5   4   2     1.900058682639    59.67187659   151.74625215
 B      3   2   1     2.288020050258   125.76599431   296.64003720
 B      5   4   2     1.936775194900    78.91992119   350.48819455
 B      8   3   2     1.700000003863    91.81363982    32.40407482
 B      4   2   1     1.814919715251    89.99453567   237.36353093
 B     10   8   3     1.823308159045    94.28380462     4.06627550

---------------------------
INTERNAL COORDINATES (A.U.)
---------------------------
 B      0   0   0     0.000000000000     0.00000000     0.00000000
 B      1   0   0     3.681370781367     0.00000000     0.00000000
 B      2   1   0     5.480993468794    85.33781138     0.00000000
 B      2   1   3     4.864338651806   104.07285329   306.59024835
 B      4   2   1     6.027407641021    84.00816939   317.69504024
 B      4   2   1     3.760880397422   142.83041746    83.36764083
 B      5   4   2     3.590590548567    59.67187659   151.74625215
 B      3   2   1     4.323731283909   125.76599431   296.64003720
 B      5   4   2     3.659974701333    78.91992119   350.48819455
 B      8   3   2     3.212534434965    91.81363982    32.40407482
 B      4   2   1     3.429701216879    89.99453567   237.36353093
 B     10   8   3     3.445553078338    94.28380462     4.06627550

---------------------
BASIS SET INFORMATION
---------------------
There are 1 groups of distinct atoms

 Group   1 Type B   : 7s4p1d contracted to 3s2p1d pattern {511/31/1}

Atom   0B    basis set group =>   1
Atom   1B    basis set group =>   1
Atom   2B    basis set group =>   1
Atom   3B    basis set group =>   1
Atom   4B    basis set group =>   1
Atom   5B    basis set group =>   1
Atom   6B    basis set group =>   1
Atom   7B    basis set group =>   1
Atom   8B    basis set group =>   1
Atom   9B    basis set group =>   1
Atom  10B    basis set group =>   1
Atom  11B    basis set group =>   1
---------------------------------
AUXILIARY/J BASIS SET INFORMATION
---------------------------------
There are 1 groups of distinct atoms

 Group   1 Type B   : 12s5p4d2f1g contracted to 6s4p3d1f1g pattern {711111/2111/211/2/1}

Atom   0B    basis set group =>   1
Atom   1B    basis set group =>   1
Atom   2B    basis set group =>   1
Atom   3B    basis set group =>   1
Atom   4B    basis set group =>   1
Atom   5B    basis set group =>   1
Atom   6B    basis set group =>   1
Atom   7B    basis set group =>   1
Atom   8B    basis set group =>   1
Atom   9B    basis set group =>   1
Atom  10B    basis set group =>   1
Atom  11B    basis set group =>   1


           ************************************************************
           *        Program running with 8 parallel MPI-processes     *
           *              working on a common directory               *
           ************************************************************
------------------------------------------------------------------------------
                             ORCA STARTUP CALCULATIONS
                           -- RI-GTO INTEGRALS CHOSEN --
------------------------------------------------------------------------------
------------------------------------------------------------------------------
                   ___                                                        
                  /   \      - P O W E R E D   B Y -                         
                 /     \                                                     
                 |  |  |   _    _      __       _____    __    __             
                 |  |  |  | |  | |    /  \     |  _  \  |  |  /  |          
                  \  \/   | |  | |   /    \    | | | |  |  | /  /          
                 / \  \   | |__| |  /  /\  \   | |_| |  |  |/  /          
                |  |  |   |  __  | /  /__\  \  |    /   |      \           
                |  |  |   | |  | | |   __   |  |    \   |  |\   \          
                \     /   | |  | | |  |  |  |  | |\  \  |  | \   \       
                 \___/    |_|  |_| |__|  |__|  |_| \__\ |__|  \__/        
                                                                              
                      - O R C A' S   B I G   F R I E N D -                    
                                      &                                       
                       - I N T E G R A L  F E E D E R -                       
                                                                              
 v1 FN, 2020, v2 2021, v3 2022-2024                                           
------------------------------------------------------------------------------


----------------------
SHARK INTEGRAL PACKAGE
----------------------

Number of atoms                             ...     12
Number of basis functions                   ...    168
Number of shells                            ...     72
Maximum angular momentum                    ...      2
Integral batch strategy                     ... SHARK/LIBINT Hybrid
RI-J (if used) integral strategy            ... SPLIT-RIJ (Revised 2003 algorithm where possible)
Printlevel                                  ...      1
Contraction scheme used                     ... SEGMENTED contraction
Prescreening option                         ... SCHWARTZ
   Thresh                                   ... 2.500e-11
   Tcut                                     ... 2.500e-12
   Tpresel                                  ... 2.500e-12 
Coulomb Range Separation                    ... NOT USED
Exchange Range Separation                   ... NOT USED
Multipole approximations                    ... NOT USED
Finite Nucleus Model                        ... NOT USED
CABS basis                                  ... NOT available
Auxiliary Coulomb fitting basis             ... AVAILABLE
   # of basis functions in Aux-J            ...    588
   # of shells in Aux-J                     ...    180
   Maximum angular momentum in Aux-J        ...      4
Auxiliary J/K fitting basis                 ... NOT available
Auxiliary Correlation fitting basis         ... NOT available
Auxiliary 'external' fitting basis          ... NOT available

Checking pre-screening integrals            ... done (  0.0 sec) Dimension = 72
   => SHARK Basis and OBASIS are compatible. Storing Pre-screening
Shell pair information
Shell pair cut-off parameter TPreSel        ...   2.5e-12
Total number of shell pairs                 ...      2628
Shell pairs after pre-screening             ...      2546
Total number of primitive shell pairs       ...     10596
Primitive shell pairs kept                  ...      7386
          la=0 lb=0:    612 shell pairs
          la=1 lb=0:    858 shell pairs
          la=1 lb=1:    300 shell pairs
          la=2 lb=0:    410 shell pairs
          la=2 lb=1:    288 shell pairs
          la=2 lb=2:     78 shell pairs

Checking whether 4 symmetric matrices of dimension 168 fit in memory
:Max Core in MB      =   2500.00
 MB in use           =      6.78
 MB left             =   2493.22
 MB needed           =      0.43
 Data fit in memory  = YES
Calculating RI/J V-Matrix + Cholesky decomp.... done (  0.0 sec)
Calculating Nuclear repulsion               ... done (  0.0 sec) ENN=    282.284968180142 Eh

Diagonalization of the overlap matrix:
Smallest eigenvalue                        ... 4.857e-04
Time for diagonalization                   ...    0.005 sec
Threshold for overlap eigenvalues          ... 1.000e-07
Number of eigenvalues below threshold      ... 0
Time for construction of square roots      ...    0.002 sec
Total time needed                          ...    0.009 sec

-------------------
DFT GRID GENERATION
-------------------

General Integration Accuracy     IntAcc      ... 4.388
Radial Grid Type                 RadialGrid  ... OptM3 with GC (2021)
Angular Grid (max. ang.)         AngularGrid ... 4 (Lebedev-302)
Angular grid pruning method      GridPruning ... 4 (adaptive)
Weight generation scheme         WeightScheme... mBecke (2022)
Basis function cutoff            BFCut       ... 1.0000e-11
Integration weight cutoff        WCut        ... 1.0000e-14
Partially contracted basis set               ... off
Rotationally invariant grid construction     ... off
Angular grids for H and He will be reduced by one unit

Total number of grid points                  ...    71983
Total number of batches                      ...     1130
Average number of points per batch           ...       63
Average number of grid points per atom       ...     5999
Grids setup in   0.7 sec
Initializing property integral containers    ... done (  0.0 sec)

SHARK setup successfully completed in   0.9 seconds

Maximum memory used throughout the entire STARTUP-calculation: 19.9 MB


           ************************************************************
           *        Program running with 8 parallel MPI-processes     *
           *              working on a common directory               *
           ************************************************************
-------------------------------------------------------------------------------
                                 ORCA GUESS
                   Start orbitals & Density for SCF / CASSCF
-------------------------------------------------------------------------------

------------
SCF SETTINGS
------------
Hamiltonian:
 Density Functional     Method          .... DFT(GTOs)
 Exchange Functional    Exchange        .... B88
   X-Alpha parameter    XAlpha          ....  0.666667
   Becke's b parameter  XBeta           ....  0.004200
 Correlation Functional Correlation     .... P86
 LDA part of GGA corr.  LDAOpt          .... PW91-LDA
 Gradients option       PostSCFGGA      .... off
   NL short-range parameter             ....  4.400000
 RI-approximation to the Coulomb term is turned on
   Number of AuxJ basis functions       .... 588


General Settings:
 Integral files         IntName         .... random3_nn1.70
 Hartree-Fock type      HFTyp           .... RHF
 Total Charge           Charge          ....    0
 Multiplicity           Mult            ....    1
 Number of Electrons    NEL             ....   60
 Basis Dimension        Dim             ....  168
 Nuclear Repulsion      ENuc            ....    282.2849681801 Eh

Convergence Acceleration:
 AO-DIIS                CNVDIIS         .... on
   Start iteration      DIISMaxIt       ....     0
   Startup error        DIISStart       ....  0.200000
   # of expansion vecs  DIISMaxEq       ....     5
   Bias factor          DIISBfac        ....   1.050
   Max. coefficient     DIISMaxC        ....  10.000
 MO-DIIS                CNVKDIIS        .... off
 Trust-Rad. Augm. Hess. CNVTRAH         .... auto
   Auto Start mean grad. ratio tolernc. ....  1.125000
   Auto Start start iteration           ....    50
   Auto Start num. interpolation iter.  ....    10
   Max. Number of Micro iterations      ....    24
   Max. Number of Macro iterations      .... Maxiter - #DIIS iter
   Number of Davidson start vectors     ....     2
   Converg. threshold    (grad. norm)   ....   1.000e-05
   Grad. Scal. Fac. for Micro threshold ....   0.100
   Minimum threshold for Micro iter.    ....   1.000e-02
   NR start threshold (gradient norm)   ....   1.000e-04
   Initial trust radius                 ....   0.400
   Minimum AH scaling param. (alpha)    ....   1.000
   Maximum AH scaling param. (alpha)    .... 1000.000
   Quad. conv. algorithm                .... NR
   White noise on init. David. guess    .... on
   Maximum white noise                  ....   0.010
   Pseudo random numbers                .... off
   Inactive MOs                         .... canonical
   Orbital update algorithm             .... Taylor
   Preconditioner                       .... Diag
   Full preconditioner red. dimension   ....   250
 SOSCF                 CNVSOSCF           .... on
   Start iteration     SOSCFMaxIt         ....   150
   Startup grad/error  SOSCFStart         ....  0.001000
   Hessian update      SOSCFHessUp        .... L-BFGS
   Autom. constraints  SOSCFAutoConstrain .... off
 Level Shifting         CNVShift        .... on
   Level shift para.    LevelShift      ....    0.2500
   Turn off err/grad.   ShiftErr        ....    0.0000
 Zerner damping         CNVZerner       .... off
 Static damping         CNVDamp         .... on
   Fraction old density DampFac         ....    0.8500
   Max. Damping (<1)    DampMax         ....    0.9800
   Min. Damping (>=0)   DampMin         ....    0.0000
   Turn off err/grad.   DampErr         ....    0.0300

SCF Procedure:
 Maximum # iterations   MaxIter         ....   125
 SCF integral mode      SCFMode         .... Direct
   Integral package                     .... SHARK and LIBINT hybrid scheme
 Reset frequency        DirectResetFreq ....    20
 Integral Threshold     Thresh          ....  2.500e-11 Eh
 Primitive CutOff       TCut            ....  2.500e-12 Eh

Convergence Tolerance:
 Convergence Check Mode ConvCheckMode   .... Total+1el-Energy
 Convergence forced     ConvForced      .... 0
 Energy Change          TolE            ....  1.000e-08 Eh
 1-El. energy change                    ....  1.000e-05 Eh
 Orbital Gradient       TolG            ....  1.000e-05
 Orbital Rotation angle TolX            ....  1.000e-05
 DIIS Error             TolErr          ....  5.000e-07

------------------------------
INITIAL GUESS: MODEL POTENTIAL
------------------------------
Loading Hartree-Fock densities                     ... done
Calculating cut-offs                               ... done
Initializing the effective Hamiltonian             ... done
Setting up the integral package (SHARK)            ... done
Starting the Coulomb interaction                   ... done (   0.1 sec)
Making the grid                                    ... done (   0.2 sec)
Mapping shells                                     ... done
Starting the XC term evaluation                    ... done (   0.0 sec)
  promolecular density results
     # of electrons  =     60.000162789
     EX              =    -44.856489395
     EC              =     -1.852038657
     EX+EC           =    -46.708528052
Transforming the Hamiltonian                       ... done (   0.0 sec)
Diagonalizing the Hamiltonian                      ... done (   0.0 sec)
Back transforming the eigenvectors                 ... done (   0.0 sec)
Now organizing SCF variables                       ... done
                      ------------------
                      INITIAL GUESS DONE (   0.4 sec)
                      ------------------
             **** ENERGY FILE WAS UPDATED (random3_nn1.70.en.tmp) ****
Finished Guess after   0.8 sec
Maximum memory used throughout the entire GUESS-calculation: 9.6 MB


           ************************************************************
           *        Program running with 8 parallel MPI-processes     *
           *              working on a common directory               *
           ************************************************************

-------------------------------------------------------------------------------------------
                                      ORCA LEAN-SCF
                              memory conserving SCF solver
-------------------------------------------------------------------------------------------

----------------------------------------D-I-I-S--------------------------------------------
Iteration    Energy (Eh)           Delta-E    RMSDP     MaxDP     DIISErr   Damp  Time(sec)
-------------------------------------------------------------------------------------------
               ***  Starting incremental Fock matrix formation  ***
    1    -296.5763579046655423     0.00e+00  7.62e-03  6.73e-02  9.54e-02  0.850   0.4
Warning: op=0 Small HOMO/LUMO gap (  -0.036) - skipping pre-diagonalization
         Will do a full diagonalization
    2    -296.6733668105431434    -9.70e-02  8.67e-03  7.04e-02  6.15e-02  0.850   0.4
                               ***Turning on AO-DIIS***
    3    -296.7192608148390036    -4.59e-02  5.04e-03  5.44e-02  2.78e-02  0.850   0.3
    4    -296.7303661507052084    -1.11e-02  2.01e-02  2.16e-01  1.55e-02  0.000   0.3
    5    -296.6784415243349713     5.19e-02  7.05e-03  6.42e-02  8.18e-02  0.000   0.3
    6    -296.7614265231703712    -8.30e-02  7.22e-04  6.55e-03  4.19e-02  0.850   0.4
    7    -296.7669374905482300    -5.51e-03  9.83e-04  8.53e-03  3.95e-02  0.850   0.3
    8    -296.7742736939627548    -7.34e-03  1.07e-03  9.22e-03  3.58e-02  0.850   0.3
    9    -296.7818333994058548    -7.56e-03  1.30e-03  1.19e-02  3.07e-02  0.850   0.3
   10    -296.7888728610286080    -7.04e-03  1.23e-03  1.22e-02  2.58e-02  0.850   0.3
   11    -296.7946614617897012    -5.79e-03  7.10e-03  6.79e-02  2.02e-02  0.000   0.4
   12    -296.8073878802871377    -1.27e-02  1.45e-03  1.14e-02  9.18e-03  0.000   0.3
   13    -296.8085619518511749    -1.17e-03  8.67e-04  8.61e-03  6.55e-03  0.000   0.3
   14    -296.8091270054504776    -5.65e-04  4.52e-04  3.40e-03  3.18e-03  0.000   0.3
   15    -296.8093203467087733    -1.93e-04  3.23e-04  2.72e-03  1.87e-03  0.000   0.3
   16    -296.8093964833793734    -7.61e-05  2.22e-04  1.73e-03  1.10e-03  0.000   0.3
                              *** Initializing SOSCF ***
---------------------------------------S-O-S-C-F--------------------------------------
Iteration    Energy (Eh)           Delta-E    RMSDP     MaxDP     MaxGrad    Time(sec)
--------------------------------------------------------------------------------------
   17    -296.8094361235014276    -3.96e-05  1.44e-04  1.16e-03  6.35e-04     0.3
               *** Restarting incremental Fock matrix formation ***
   18    -296.8094457918253966    -9.67e-06  3.43e-04  2.38e-03  3.79e-04     0.3
   19    -296.8094284558824256     1.73e-05  2.24e-04  1.52e-03  8.32e-04     0.3
   20    -296.8094602534531532    -3.18e-05  3.43e-04  3.09e-03  2.05e-04     0.3
   21    -296.8094422168654773     1.80e-05  1.94e-04  1.06e-03  5.98e-04     0.4
   22    -296.8094672613082139    -2.50e-05  2.34e-04  2.00e-03  1.35e-04     0.3
   23    -296.8094595565912641     7.70e-06  1.54e-04  1.35e-03  3.95e-04     0.3
   24    -296.8094699059820414    -1.03e-05  1.22e-04  1.11e-03  8.49e-05     0.3
   25    -296.8094680999988668     1.81e-06  7.64e-05  5.27e-04  2.41e-04     0.4
   26    -296.8094706334908324    -2.53e-06  6.19e-05  5.61e-04  4.92e-05     0.3
   27    -296.8094701142194936     5.19e-07  3.93e-05  3.60e-04  1.18e-04     0.3
   28    -296.8094709149531809    -8.01e-07  2.44e-05  1.47e-04  2.18e-05     0.4
   29    -296.8094709553101893    -4.04e-08  3.04e-05  1.29e-04  2.49e-05     0.3
   30    -296.8094710489078807    -9.36e-08  2.70e-05  1.28e-04  1.36e-05     0.4
   31    -296.8094710727126539    -2.38e-08  1.77e-05  6.97e-05  1.01e-05     0.4
   32    -296.8094710862937973    -1.36e-08  8.63e-06  7.15e-05  1.04e-05     0.3
   33    -296.8094710951675097    -8.87e-09  7.89e-06  4.26e-05  6.14e-06     0.3
                 **** Energy Check signals convergence ****

               *****************************************************
               *                     SUCCESS                       *
               *           SCF CONVERGED AFTER  33 CYCLES          *
               *****************************************************

             **** ENERGY FILE WAS UPDATED (random3_nn1.70.en.tmp) ****

----------------
TOTAL SCF ENERGY
----------------

Total Energy       :       -296.80947110192585 Eh           -8076.59631 eV

Components:
Nuclear Repulsion  :        282.28496818014230 Eh            7681.36450 eV
Electronic Energy  :       -579.09443928206815 Eh          -15757.96081 eV
One Electron Energy:       -952.85189489463073 Eh          -25928.41824 eV
Two Electron Energy:        373.75745561256252 Eh           10170.45742 eV

Virial components:
Potential Energy   :       -587.89071336977577 Eh          -15997.31960 eV
Kinetic Energy     :        291.08124226784986 Eh            7920.72328 eV
Virial Ratio       :          2.01967914108600

DFT components:
N(Alpha)           :       30.000000141957 electrons
N(Beta)            :       30.000000141957 electrons
N(Total)           :       60.000000283914 electrons
E(X)               :      -45.106555716273 Eh       
E(C)               :       -1.879113088532 Eh       
E(XC)              :      -46.985668804805 Eh       

---------------
SCF CONVERGENCE
---------------

  Last Energy change         ...    8.8737e-09  Tolerance :   1.0000e-08
  Last MAX-Density change    ...    4.2557e-05  Tolerance :   1.0000e-07
  Last RMS-Density change    ...    7.8873e-06  Tolerance :   5.0000e-09
  Last DIIS Error            ...    6.3480e-04  Tolerance :   5.0000e-07
  Last Orbital Gradient      ...    6.1421e-06  Tolerance :   1.0000e-05
  Last Orbital Rotation      ...    1.3640e-04  Tolerance :   1.0000e-05


----------------
ORBITAL ENERGIES
----------------

  NO   OCC          E(Eh)            E(eV) 
   0   2.0000      -6.661066      -181.2568 
   1   2.0000      -6.654378      -181.0748 
   2   2.0000      -6.652557      -181.0253 
   3   2.0000      -6.652488      -181.0234 
   4   2.0000      -6.639150      -180.6605 
   5   2.0000      -6.638866      -180.6527 
   6   2.0000      -6.638731      -180.6491 
   7   2.0000      -6.635016      -180.5480 
   8   2.0000      -6.631207      -180.4443 
   9   2.0000      -6.625893      -180.2997 
  10   2.0000      -6.615134      -180.0069 
  11   2.0000      -6.606133      -179.7620 
  12   2.0000      -0.552548       -15.0356 
  13   2.0000      -0.499272       -13.5859 
  14   2.0000      -0.475728       -12.9452 
  15   2.0000      -0.459550       -12.5050 
  16   2.0000      -0.400416       -10.8959 
  17   2.0000      -0.397667       -10.8211 
  18   2.0000      -0.384454       -10.4615 
  19   2.0000      -0.357922        -9.7395 
  20   2.0000      -0.320846        -8.7307 
  21   2.0000      -0.291139        -7.9223 
  22   2.0000      -0.275873        -7.5069 
  23   2.0000      -0.266021        -7.2388 
  24   2.0000      -0.257541        -7.0080 
  25   2.0000      -0.256114        -6.9692 
  26   2.0000      -0.229880        -6.2553 
  27   2.0000      -0.222594        -6.0571 
  28   2.0000      -0.214716        -5.8427 
  29   2.0000      -0.203886        -5.5480 
  30   0.0000      -0.198047        -5.3891 
  31   0.0000      -0.191186        -5.2024 
  32   0.0000      -0.178406        -4.8547 
  33   0.0000      -0.171915        -4.6780 
  34   0.0000      -0.164076        -4.4647 
  35   0.0000      -0.157807        -4.2941 
  36   0.0000      -0.142230        -3.8703 
  37   0.0000      -0.134602        -3.6627 
  38   0.0000      -0.127063        -3.4576 
  39   0.0000      -0.116105        -3.1594 
  40   0.0000      -0.101241        -2.7549 
*Only the first 10 virtual orbitals were printed.

                    ********************************
                    * MULLIKEN POPULATION ANALYSIS *
                    ********************************

-----------------------
MULLIKEN ATOMIC CHARGES
-----------------------
   0 B :    0.145714
   1 B :    0.006023
   2 B :    0.055660
   3 B :   -0.261405
   4 B :    0.032237
   5 B :    0.129901
   6 B :    0.035651
   7 B :   -0.036002
   8 B :   -0.041859
   9 B :    0.090495
  10 B :    0.058473
  11 B :   -0.214888
Sum of atomic charges:    0.0000000

--------------------------------
MULLIKEN REDUCED ORBITAL CHARGES
--------------------------------
  0 B s       :     3.367818  s :     3.367818
      pz      :     0.590020  p :     1.464322
      px      :     0.469197
      py      :     0.405105
      dz2     :     0.005858  d :     0.022145
      dxz     :     0.004585
      dyz     :     0.004171
      dx2y2   :     0.002768
      dxy     :     0.004763

  1 B s       :     3.700566  s :     3.700566
      pz      :     0.478695  p :     1.275906
      px      :     0.286216
      py      :     0.510995
      dz2     :     0.005259  d :     0.017505
      dxz     :     0.004066
      dyz     :     0.003866
      dx2y2   :     0.002914
      dxy     :     0.001401

  2 B s       :     3.719085  s :     3.719085
      pz      :     0.410367  p :     1.206124
      px      :     0.446696
      py      :     0.349061
      dz2     :     0.002118  d :     0.019131
      dxz     :     0.005583
      dyz     :     0.003049
      dx2y2   :     0.004560
      dxy     :     0.003821

  3 B s       :     3.300920  s :     3.300920
      pz      :     0.633616  p :     1.939537
      px      :     0.667469
      py      :     0.638452
      dz2     :     0.005315  d :     0.020947
      dxz     :     0.005216
      dyz     :     0.003169
      dx2y2   :     0.003671
      dxy     :     0.003576

  4 B s       :     3.367802  s :     3.367802
      pz      :     0.524386  p :     1.588991
      px      :     0.377530
      py      :     0.687075
      dz2     :     0.001472  d :     0.010971
      dxz     :     0.001440
      dyz     :     0.001176
      dx2y2   :     0.003512
      dxy     :     0.003371

  5 B s       :     3.653568  s :     3.653568
      pz      :     0.425837  p :     1.202285
      px      :     0.303452
      py      :     0.472996
      dz2     :     0.003611  d :     0.014246
      dxz     :     0.001565
      dyz     :     0.002784
      dx2y2   :     0.002991
      dxy     :     0.003295

  6 B s       :     3.541117  s :     3.541117
      pz      :     0.396899  p :     1.410293
      px      :     0.582398
      py      :     0.430996
      dz2     :     0.001772  d :     0.012939
      dxz     :     0.001337
      dyz     :     0.002722
      dx2y2   :     0.001962
      dxy     :     0.005146

  7 B s       :     3.474501  s :     3.474501
      pz      :     0.664038  p :     1.538415
      px      :     0.539647
      py      :     0.334730
      dz2     :     0.003870  d :     0.023086
      dxz     :     0.004668
      dyz     :     0.003504
      dx2y2   :     0.005660
      dxy     :     0.005384

  8 B s       :     3.516939  s :     3.516939
      pz      :     0.405777  p :     1.511448
      px      :     0.493028
      py      :     0.612643
      dz2     :     0.001472  d :     0.013472
      dxz     :     0.001877
      dyz     :     0.002930
      dx2y2   :     0.004511
      dxy     :     0.002681

  9 B s       :     3.241650  s :     3.241650
      pz      :     0.460545  p :     1.643953
      px      :     0.567434
      py      :     0.615975
      dz2     :     0.003865  d :     0.023902
      dxz     :     0.005071
      dyz     :     0.004634
      dx2y2   :     0.005853
      dxy     :     0.004479

 10 B s       :     3.839778  s :     3.839778
      pz      :     0.417435  p :     1.088944
      px      :     0.504254
      py      :     0.167255
      dz2     :     0.002695  d :     0.012805
      dxz     :     0.005808
      dyz     :     0.001621
      dx2y2   :     0.001392
      dxy     :     0.001289

 11 B s       :     3.316542  s :     3.316542
      pz      :     0.638121  p :     1.870072
      px      :     0.587332
      py      :     0.644619
      dz2     :     0.004013  d :     0.028275
      dxz     :     0.004219
      dyz     :     0.006488
      dx2y2   :     0.007222
      dxy     :     0.006332



                     *******************************
                     * LOEWDIN POPULATION ANALYSIS *
                     *******************************

----------------------
LOEWDIN ATOMIC CHARGES
----------------------
   0 B :   -0.086255
   1 B :    0.107265
   2 B :    0.036445
   3 B :   -0.210764
   4 B :   -0.006392
   5 B :    0.083277
   6 B :    0.042725
   7 B :    0.052080
   8 B :    0.049100
   9 B :   -0.087504
  10 B :    0.101976
  11 B :   -0.081953

-------------------------------
LOEWDIN REDUCED ORBITAL CHARGES
-------------------------------
  0 B s       :     3.087017  s :     3.087017
      pz      :     0.765456  p :     1.942448
      px      :     0.618126
      py      :     0.558866
      dz2     :     0.017413  d :     0.056789
      dxz     :     0.011484
      dyz     :     0.008595
      dx2y2   :     0.005127
      dxy     :     0.014170

  1 B s       :     3.347849  s :     3.347849
      pz      :     0.596712  p :     1.512136
      px      :     0.342828
      py      :     0.572595
      dz2     :     0.012327  d :     0.032750
      dxz     :     0.007420
      dyz     :     0.006157
      dx2y2   :     0.004887
      dxy     :     0.001960

  2 B s       :     3.327443  s :     3.327443
      pz      :     0.510604  p :     1.597714
      px      :     0.642501
      py      :     0.444609
      dz2     :     0.003135  d :     0.038398
      dxz     :     0.012538
      dyz     :     0.006368
      dx2y2   :     0.010331
      dxy     :     0.006025

  3 B s       :     2.998620  s :     2.998620
      pz      :     0.695784  p :     2.159063
      px      :     0.756110
      py      :     0.707168
      dz2     :     0.012863  d :     0.053081
      dxz     :     0.015411
      dyz     :     0.005998
      dx2y2   :     0.008046
      dxy     :     0.010763

  4 B s       :     3.125930  s :     3.125930
      pz      :     0.545261  p :     1.850819
      px      :     0.444607
      py      :     0.860950
      dz2     :     0.004020  d :     0.029644
      dxz     :     0.002172
      dyz     :     0.003150
      dx2y2   :     0.009190
      dxy     :     0.011113

  5 B s       :     3.382912  s :     3.382912
      pz      :     0.502408  p :     1.503576
      px      :     0.397961
      py      :     0.603208
      dz2     :     0.008294  d :     0.030235
      dxz     :     0.002401
      dyz     :     0.005119
      dx2y2   :     0.004761
      dxy     :     0.009660

  6 B s       :     3.279859  s :     3.279859
      pz      :     0.436816  p :     1.648206
      px      :     0.678839
      py      :     0.532551
      dz2     :     0.004569  d :     0.029210
      dxz     :     0.002350
      dyz     :     0.004711
      dx2y2   :     0.002896
      dxy     :     0.014685

  7 B s       :     3.108957  s :     3.108957
      pz      :     0.713594  p :     1.787884
      px      :     0.668747
      py      :     0.405543
      dz2     :     0.007877  d :     0.051079
      dxz     :     0.010171
      dyz     :     0.008347
      dx2y2   :     0.013568
      dxy     :     0.011115

  8 B s       :     3.210751  s :     3.210751
      pz      :     0.448116  p :     1.709109
      px      :     0.514124
      py      :     0.746869
      dz2     :     0.003119  d :     0.031040
      dxz     :     0.003748
      dyz     :     0.007086
      dx2y2   :     0.011978
      dxy     :     0.005108

  9 B s       :     2.980942  s :     2.980942
      pz      :     0.516234  p :     2.044321
      px      :     0.761496
      py      :     0.766591
      dz2     :     0.007269  d :     0.062240
      dxz     :     0.011741
      dyz     :     0.013421
      dx2y2   :     0.018378
      dxy     :     0.011431

 10 B s       :     3.478659  s :     3.478659
      pz      :     0.587740  p :     1.388995
      px      :     0.604414
      py      :     0.196841
      dz2     :     0.006130  d :     0.030370
      dxz     :     0.016190
      dyz     :     0.002782
      dx2y2   :     0.003221
      dxy     :     0.002047

 11 B s       :     2.917106  s :     2.917106
      pz      :     0.671269  p :     2.096408
      px      :     0.683756
      py      :     0.741383
      dz2     :     0.007509  d :     0.068438
      dxz     :     0.011729
      dyz     :     0.015201
      dx2y2   :     0.019866
      dxy     :     0.014134



                      *****************************
                      * MAYER POPULATION ANALYSIS *
                      *****************************

  NA   - Mulliken gross atomic population
  ZA   - Total nuclear charge
  QA   - Mulliken gross atomic charge
  VA   - Mayer's total valence
  BVA  - Mayer's bonded valence
  FA   - Mayer's free valence

  ATOM       NA         ZA         QA         VA         BVA        FA
  0 B      4.8543     5.0000     0.1457     2.9259     2.9259     0.0000
  1 B      4.9940     5.0000     0.0060     2.4237     2.4237     0.0000
  2 B      4.9443     5.0000     0.0557     2.3300     2.3300    -0.0000
  3 B      5.2614     5.0000    -0.2614     3.2525     3.2525     0.0000
  4 B      4.9678     5.0000     0.0322     2.9809     2.9809    -0.0000
  5 B      4.8701     5.0000     0.1299     2.3500     2.3500     0.0000
  6 B      4.9643     5.0000     0.0357     2.7753     2.7753     0.0000
  7 B      5.0360     5.0000    -0.0360     2.8793     2.8793    -0.0000
  8 B      5.0419     5.0000    -0.0419     2.8975     2.8975     0.0000
  9 B      4.9095     5.0000     0.0905     3.2065     3.2065     0.0000
 10 B      4.9415     5.0000     0.0585     1.8315     1.8315     0.0000
 11 B      5.2149     5.0000    -0.2149     3.2546     3.2546     0.0000

  Mayer bond orders larger than 0.100000
B(  0-B ,  1-B ) :   0.7796 B(  0-B ,  4-B ) :   0.1002 B(  0-B ,  5-B ) :   0.1979 
B(  0-B ,  8-B ) :   0.7007 B(  0-B , 11-B ) :   0.7698 B(  1-B ,  2-B ) :   0.1211 
B(  1-B ,  3-B ) :   0.4003 B(  1-B ,  8-B ) :   0.3367 B(  1-B , 10-B ) :   0.1421 
B(  1-B , 11-B ) :   0.2629 B(  2-B ,  3-B ) :   0.2890 B(  2-B ,  5-B ) :   0.2310 
B(  2-B ,  7-B ) :   0.4869 B(  2-B ,  9-B ) :   0.2672 B(  2-B , 11-B ) :   0.5763 
B(  3-B ,  4-B ) :   0.1879 B(  3-B ,  5-B ) :   0.8033 B(  3-B ,  6-B ) :   0.2718 
B(  3-B ,  7-B ) :   0.1129 B(  3-B ,  8-B ) :   0.1068 B(  3-B , 10-B ) :   0.7814 
B(  3-B , 11-B ) :   0.1411 B(  4-B ,  6-B ) :   1.0184 B(  4-B ,  8-B ) :   1.0092 
B(  4-B ,  9-B ) :   0.1075 B(  4-B , 10-B ) :   0.2158 B(  5-B ,  6-B ) :   0.1727 
B(  5-B ,  7-B ) :   0.5356 B(  5-B ,  9-B ) :   0.1275 B(  6-B ,  8-B ) :   0.3096 
B(  6-B ,  9-B ) :   0.5149 B(  7-B ,  9-B ) :   1.0420 B(  7-B , 10-B ) :   0.1419 
B(  7-B , 11-B ) :   0.2752 B(  8-B , 10-B ) :   0.1775 B(  9-B , 11-B ) :   0.8876 


-------
TIMINGS
-------

Total SCF time: 0 days 0 hours 0 min 11 sec 

Total time                  ....      11.432 sec
Sum of individual times     ....      11.021 sec  ( 96.4%)

SCF preparation             ....       0.504 sec  (  4.4%)
Fock matrix formation       ....       9.075 sec  ( 79.4%)
  Startup                   ....       0.016 sec  (  0.2% of F)
  Split-RI-J                ....       3.050 sec  ( 33.6% of F)
  XC integration            ....       5.710 sec  ( 62.9% of F)
    XC Preparation          ....       0.000 sec  (  0.0% of XC)
    Basis function eval.    ....       1.344 sec  ( 23.5% of XC)
    Density eval.           ....       0.851 sec  ( 14.9% of XC)
    XC-Functional eval.     ....       0.180 sec  (  3.1% of XC)
    XC-Potential eval.      ....       0.998 sec  ( 17.5% of XC)
Diagonalization             ....       0.000 sec  (  0.0%)
Density matrix formation    ....       0.237 sec  (  2.1%)
Total Energy calculation    ....       0.168 sec  (  1.5%)
Population analysis         ....       0.036 sec  (  0.3%)
Orbital Transformation      ....       0.035 sec  (  0.3%)
Orbital Orthonormalization  ....       0.000 sec  (  0.0%)
DIIS solution               ....       0.495 sec  (  4.3%)
SOSCF solution              ....       0.470 sec  (  4.1%)
Finished LeanSCF after  11.5 sec

Maximum memory used throughout the entire LEANSCF-calculation: 10.0 MB


-------------------------------------------------------------------------------
                          DFT DISPERSION CORRECTION                            
                                                                               
                              DFTD3 V3.1  Rev 1                                
                          USING Becke-Johnson damping                          
-------------------------------------------------------------------------------
The BP86 functional is recognized
Active option DFTDOPT                   ...         4   

molecular C6(AA) [au] = 9585.642403 


            DFT-D V3
 parameters
 s6 scaling factor         :     1.0000 
 a1 scaling factor         :     0.3946 
 s8 scaling factor         :     3.2822 
 a2 scaling factor         :     4.8516 
 ad hoc parameters k1-k3   :    16.0000     1.3333    -4.0000 

 Edisp/kcal,au: -39.269673643484  -0.062580201698 
 E6   /kcal   : -11.323896010 
 E8   /kcal   : -27.945777633 
 % E8         :  71.163763384 

-------------------------   ----------------
Dispersion correction           -0.062580202
-------------------------   ----------------


-------------------------   --------------------
FINAL SINGLE POINT ENERGY      -296.872051303624
-------------------------   --------------------



           ************************************************************
           *        Program running with 8 parallel MPI-processes     *
           *              working on a common directory               *
           ************************************************************
------------------------------------------------------------------------------
                         ORCA SCF GRADIENT CALCULATION
------------------------------------------------------------------------------

Nuc. rep. gradient        (SHARK) ... done (  0.0 sec)
HCore & Overlap gradient  (SHARK) ... done (  0.0 sec)
Split-RIJ-J gradient      (SHARK) ... done (  0.3 sec)
XC gradient                       ... done (  0.8 sec)
Dispersion correction             ... done (  0.1 sec)

-------------------
DISPERSION GRADIENT
-------------------

   1   B   :   -0.002730622    0.004755512    0.001431824
   2   B   :    0.000796245   -0.001601163   -0.002360197
   3   B   :    0.003349236    0.000141594   -0.003425727
   4   B   :   -0.002318359    0.003433503    0.000803687
   5   B   :   -0.000625274   -0.000391705    0.000157972
   6   B   :    0.001694798   -0.002588277    0.000671022
   7   B   :    0.003069285   -0.001007131   -0.000232720
   8   B   :   -0.000214420   -0.000791859    0.000816698
   9   B   :    0.000153018    0.001323395   -0.001619521
  10   B   :   -0.000900065   -0.001627699    0.000323022
  11   B   :   -0.000767840    0.000409427    0.000689610
  12   B   :   -0.001506001   -0.002055598    0.002744330

Difference to translation invariance:
           :   -0.0000000000   -0.0000000000   -0.0000000000

Difference to rotation invariance:
           :    0.0000000000    0.0000000000   -0.0000000000

Norm of the Dispersion gradient    ...    0.0112832412
RMS gradient                       ...    0.0018805402
MAX gradient                       ...    0.0047555123

------------------
CARTESIAN GRADIENT
------------------

   1   B   :    0.008691595   -0.059390937   -0.053676710
   2   B   :   -0.023386810   -0.024501953    0.056251711
   3   B   :   -0.052420299   -0.040303330    0.019719009
   4   B   :    0.017614592   -0.008975921   -0.002862491
   5   B   :    0.045602719    0.015281706   -0.014661720
   6   B   :   -0.022990543    0.055973778    0.030892890
   7   B   :   -0.004125455    0.069259052   -0.004623807
   8   B   :   -0.035971827    0.022818300   -0.039682780
   9   B   :    0.047926004   -0.046577168    0.025591590
  10   B   :    0.007327312    0.010998299   -0.044659113
  11   B   :    0.009367185    0.011039537    0.035205864
  12   B   :    0.002365527   -0.005621362   -0.007494442

Difference to translation invariance:
           :   -0.0000000000    0.0000000000   -0.0000000000

Difference to rotation invariance:
           :    0.0000551620   -0.0000831309    0.0003163697

Norm of the Cartesian gradient     ...    0.2003924965
RMS gradient                       ...    0.0333987494
MAX gradient                       ...    0.0692590518

-------
TIMINGS
-------

Total SCF gradient time     ....        1.301 sec

Densities                   ....       0.001 sec  (  0.1%)
One electron gradient       ....       0.050 sec  (  3.8%)
RI-J Coulomb gradient       ....       0.345 sec  ( 26.5%)
XC gradient                 ....       0.842 sec  ( 64.7%)

Maximum memory used throughout the entire SCFGRAD-calculation: 29.6 MB
------------------------------------------------------------------------------
                         ORCA GEOMETRY RELAXATION STEP
------------------------------------------------------------------------------

Reading the OPT-File                    .... done
Getting information on internals        .... done
Copying old internal coords+grads       .... done
Making the new internal coordinates     .... (2022 redundants) done
Validating the new internal coordinates .... (2022 redundants) done
Calculating the B-matrix                .... done
Calculating the G,G- and P matrices     .... done
Transforming gradient to internals      .... done
Projecting the internal gradient        .... done
Number of atoms                         ....  12
Number of internal coordinates          .... 137
Current Energy                          ....  -296.872051304 Eh
Current gradient norm                   ....     0.200392497 Eh/bohr
Maximum allowed component of the step   ....  0.300
Current trust radius                    ....  0.300
Evaluating the initial hessian          ....  (Almloef) done
Projecting the Hessian                  .... done
Forming the augmented Hessian           .... done
Diagonalizing the augmented Hessian     .... done
Last element of RFO vector              ....  0.774776162
Lowest eigenvalues of augmented Hessian:
 -0.133592667  0.014442104  0.017131175  0.017954342  0.019156414
Length of the computed step             ....  0.816023604
Warning: the length of the step is outside the trust region - taking restricted step instead
The input lambda is                     ....     0.013378
   iter:   5  x=   -0.004336  g= 4148.406938 f(x)=    31.948023
   iter:  10  x=   -0.204094  g=    8.106983 f(x)=     0.636704
   iter:  15  x=   -0.477210  g=    0.324776 f(x)=     0.000175
The output lambda is                    ....    -0.477211 (18 iterations)
The final length of the internal step   ....  0.300000000
Converting the step to Cartesian space:
 Initial RMS(Int)=    0.0256307297
Transforming coordinates:
 Iter   0:  RMS(Cart)=    0.0512629827 RMS(Int)=    0.0256254766
done
Storing new coordinates                 .... done

                                .--------------------.
          ----------------------|Geometry convergence|-------------------------
          Item                value                   Tolerance       Converged
          ---------------------------------------------------------------------
          RMS gradient        0.0144602789            0.0001000000      NO
          MAX gradient        0.0587042173            0.0003000000      NO
          RMS step            0.0256307297            0.0020000000      NO
          MAX step            0.1007894055            0.0040000000      NO
          -------------------------------------------------------------------------
          ........................................................
          Max(Bonds)      0.0533      Max(Angles)    1.45
          Max(Dihed)        1.40      Max(Improp)    0.00
          ---------------------------------------------------------------------

The optimization has not yet converged - more geometry cycles are needed


    ---------------------------------------------------------------------------
                         Redundant Internal Coordinates
                            (Angstroem and degrees)

        Definition                    Value    dE/dq     Step     New-Value
    ----------------------------------------------------------------------------
     1. B(B   1,B   0)                1.9481  0.038518 -0.0359    1.9122   
     2. B(B   3,B   1)                2.5741  0.033798 -0.0358    2.5383   
     3. B(B   3,B   2)                2.5939  0.019770 -0.0212    2.5727   
     4. B(B   5,B   3)                1.9902  0.039504 -0.0373    1.9529   
     5. B(B   5,B   2)                2.8301  0.031406 -0.0325    2.7976   
     6. B(B   6,B   4)                1.9001  0.058704 -0.0520    1.8481   
     7. B(B   6,B   3)                2.7682  0.030321 -0.0316    2.7367   
     8. B(B   7,B   5)                2.3672  0.031604 -0.0339    2.3333   
     9. B(B   8,B   1)                2.6579  0.028716 -0.0301    2.6277   
    10. B(B   8,B   0)                2.1834  0.027517 -0.0288    2.1546   
    11. B(B   8,B   4)                1.9368  0.058657 -0.0533    1.8834   
    12. B(B   9,B   6)                2.5188  0.029166 -0.0316    2.4872   
    13. B(B   9,B   7)                1.7000  0.032434 -0.0240    1.6760   
    14. B(B  10,B   3)                1.8149  0.033737 -0.0273    1.7876   
    15. B(B  11,B   0)                1.9674  0.046241 -0.0429    1.9246   
    16. B(B  11,B   9)                1.8233  0.051988 -0.0435    1.7798   
    17. B(B  11,B   3)                2.7444  0.021284 -0.0220    2.7224   
    18. B(B  11,B   2)                1.9706  0.033258 -0.0305    1.9401   
    19. A(B   1,B   0,B  11)           84.33 -0.004334    0.35     84.68   
    20. A(B   8,B   0,B  11)           99.35  0.006141   -0.59     98.76   
    21. A(B   1,B   0,B   8)           79.86 -0.004366    0.40     80.26   
    22. A(B   0,B   1,B   3)          104.07  0.000343    0.04    104.11   
    23. A(B   0,B   1,B   8)           53.97  0.000235   -0.05     53.92   
    24. A(B   3,B   1,B   8)           81.00  0.010083   -0.92     80.08   
    25. A(B   3,B   2,B  11)           72.47 -0.002245    0.21     72.68   
    26. A(B   5,B   2,B  11)           94.81 -0.001534    0.18     94.99   
    27. A(B   3,B   2,B   5)           42.77  0.004174   -0.38     42.39   
    28. A(B   2,B   3,B   6)          106.59  0.007047   -0.71    105.88   
    29. A(B   1,B   3,B   2)           68.28  0.003835   -0.33     67.95   
    30. A(B   2,B   3,B  10)          152.64 -0.002207    0.23    152.87   
    31. A(B  10,B   3,B  11)          137.73  0.002264   -0.32    137.41   
    32. A(B   1,B   3,B   5)          142.83  0.003489   -0.33    142.50   
    33. A(B   5,B   3,B   6)           79.47  0.000302   -0.09     79.38   
    34. A(B   2,B   3,B   5)           74.96 -0.000447    0.01     74.97   
    35. A(B   6,B   3,B  11)           74.80  0.002846   -0.28     74.52   
    36. A(B   5,B   3,B  11)           97.02 -0.000397    0.06     97.08   
    37. A(B   1,B   3,B   6)          115.78  0.002747   -0.21    115.57   
    38. A(B   1,B   3,B  10)           89.99 -0.002637    0.19     90.18   
    39. A(B   6,B   3,B  10)           97.63 -0.002416    0.24     97.87   
    40. A(B   2,B   3,B  11)           43.21  0.003868   -0.34     42.87   
    41. A(B   5,B   3,B  10)          122.89 -0.001808    0.24    123.14   
    42. A(B   1,B   3,B  11)           59.13  0.004248   -0.40     58.73   
    43. A(B   6,B   4,B   8)          134.84 -0.006008    0.50    135.34   
    44. A(B   2,B   5,B   7)           51.30  0.014947   -1.45     49.85   
    45. A(B   2,B   5,B   3)           62.27 -0.003727    0.37     62.64   
    46. A(B   3,B   5,B   7)           95.55  0.008206   -0.67     94.88   
    47. A(B   4,B   6,B   9)           98.79  0.007135   -0.61     98.19   
    48. A(B   3,B   6,B   9)           75.71  0.001783   -0.06     75.65   
    49. A(B   3,B   6,B   4)           84.00  0.003039   -0.31     83.69   
    50. A(B   5,B   7,B   9)          104.33 -0.008105    0.66    104.99   
    51. A(B   1,B   8,B   4)          114.50 -0.006653    0.60    115.11   
    52. A(B   0,B   8,B   4)          115.33 -0.006277    0.63    115.96   
    53. A(B   0,B   8,B   1)           46.18  0.004131   -0.35     45.83   
    54. A(B   6,B   9,B  11)           99.66 -0.006388    0.53    100.20   
    55. A(B   6,B   9,B   7)          105.50  0.004605   -0.47    105.03   
    56. A(B   7,B   9,B  11)           94.28  0.007482   -0.84     93.44   
    57. A(B   3,B  11,B   9)           88.33 -0.000691    0.03     88.36   
    58. A(B   2,B  11,B   3)           64.32 -0.001623    0.12     64.45   
    59. A(B   0,B  11,B   3)           97.75  0.003279   -0.34     97.41   
    60. A(B   2,B  11,B   9)           99.32  0.001776   -0.27     99.05   
    61. A(B   0,B  11,B   9)          142.06  0.000525   -0.00    142.06   
    62. A(B   0,B  11,B   2)          117.12 -0.001761    0.20    117.32   
    63. D(B   8,B   1,B   0,B  11)   -100.58 -0.007750    0.73    -99.85   
    64. D(B   3,B   1,B   0,B  11)    -33.02  0.005816   -0.59    -33.61   
    65. D(B   3,B   1,B   0,B   8)     67.56  0.013566   -1.32     66.24   
    66. D(B   5,B   3,B   1,B   0)     83.37  0.000118    0.06     83.43   
    67. D(B  10,B   3,B   1,B   0)   -122.64 -0.004114    0.50   -122.13   
    68. D(B  10,B   3,B   1,B   8)    -73.46  0.000721    0.00    -73.46   
    69. D(B  10,B   3,B   2,B   5)    134.78 -0.009314    1.03    135.80   
    70. D(B  11,B   3,B   2,B   5)   -118.09  0.003448   -0.38   -118.46   
    71. D(B   5,B   3,B   1,B   8)    132.54  0.004954   -0.44    132.10   
    72. D(B  10,B   3,B   2,B  11)   -107.14 -0.012762    1.40   -105.73   
    73. D(B   2,B   3,B   1,B   8)    123.59  0.005844   -0.55    123.03   
    74. D(B  11,B   3,B   1,B   0)     26.93 -0.001821    0.20     27.13   
    75. D(B   1,B   3,B   2,B   5)    174.41  0.000991   -0.11    174.30   
    76. D(B   1,B   3,B   2,B  11)    -67.50 -0.002456    0.27    -67.23   
    77. D(B   2,B   3,B   1,B   0)     74.41  0.001009   -0.05     74.36   
    78. D(B   6,B   3,B   2,B  11)     44.20 -0.001030    0.21     44.41   
    79. D(B   5,B   3,B   2,B  11)    118.09 -0.003448    0.38    118.46   
    80. D(B   2,B   5,B   3,B  10)   -157.14  0.005201   -0.55   -157.69   
    81. D(B   7,B   5,B   3,B   6)     70.07 -0.002344    0.33     70.40   
    82. D(B   7,B   5,B   3,B  11)     -2.97 -0.005434    0.65     -2.32   
    83. D(B   7,B   5,B   3,B   2)    -40.46 -0.009966    1.07    -39.39   
    84. D(B   7,B   5,B   3,B   1)    -49.08 -0.009360    0.99    -48.09   
    85. D(B   7,B   5,B   3,B  10)    162.40 -0.004765    0.52    162.92   
    86. D(B   7,B   5,B   2,B   3)    124.14  0.001606    0.05    124.19   
    87. D(B   7,B   5,B   2,B  11)     66.56  0.000028    0.24     66.79   
    88. D(B   2,B   5,B   3,B   1)     -8.62  0.000606   -0.08     -8.70   
    89. D(B   3,B   5,B   2,B  11)    -57.59 -0.001578    0.19    -57.40   
    90. D(B   4,B   6,B   3,B  10)     62.18  0.001242   -0.23     61.95   
    91. D(B   4,B   6,B   3,B   1)    -31.52  0.004938   -0.53    -32.05   
    92. D(B   4,B   6,B   3,B   5)   -175.65 -0.000260   -0.02   -175.67   
    93. D(B   4,B   6,B   3,B   2)   -104.97 -0.002755    0.17   -104.80   
    94. D(B   3,B   6,B   4,B   8)     26.40 -0.002716    0.27     26.68   
    95. D(B   9,B   6,B   4,B   8)    -48.08 -0.004032    0.30    -47.79   
    96. D(B   9,B   6,B   3,B  10)    162.87  0.007562   -0.77    162.10   
    97. D(B   9,B   6,B   3,B   5)    -74.96  0.006061   -0.56    -75.53   
    98. D(B   4,B   6,B   3,B  11)    -75.32 -0.001454    0.13    -75.19   
    99. D(B   9,B   7,B   5,B   2)    -87.98  0.011527   -1.15    -89.13   
[...]
      dz2     :     0.009949  d :     0.060959
      dxz     :     0.014600
      dyz     :     0.006352
      dx2y2   :     0.015377
      dxy     :     0.014682

  8 B s       :     2.562559  s :     2.562559
      pz      :     0.759616  p :     2.075731
      px      :     0.560093
      py      :     0.756022
      dz2     :     0.011804  d :     0.062201
      dxz     :     0.011986
      dyz     :     0.012055
      dx2y2   :     0.013344
      dxy     :     0.013013

  9 B s       :     2.561469  s :     2.561469
      pz      :     0.551423  p :     2.078874
      px      :     0.765482
      py      :     0.761969
      dz2     :     0.010958  d :     0.062188
      dxz     :     0.012189
      dyz     :     0.014708
      dx2y2   :     0.012285
      dxy     :     0.012048

 10 B s       :     3.176706  s :     3.176706
      pz      :     0.596756  p :     2.044748
      px      :     0.699903
      py      :     0.748088
      dz2     :     0.015227  d :     0.061046
      dxz     :     0.015169
      dyz     :     0.016287
      dx2y2   :     0.006451
      dxy     :     0.007912

 11 B s       :     3.150923  s :     3.150923
      pz      :     0.704283  p :     1.813633
      px      :     0.472712
      py      :     0.636638
      dz2     :     0.011697  d :     0.052973
      dxz     :     0.012830
      dyz     :     0.011633
      dx2y2   :     0.007903
      dxy     :     0.008910



                     *******************************
                     * LOEWDIN POPULATION ANALYSIS *
                     *******************************

----------------------
LOEWDIN ATOMIC CHARGES
----------------------
   0 B :   -0.074487
   1 B :    0.037578
   2 B :    0.036676
   3 B :    0.036202
   4 B :    0.036600
   5 B :    0.038316
   6 B :   -0.074611
   7 B :   -0.074628
   8 B :    0.038068
   9 B :    0.037903
  10 B :   -0.074369
  11 B :    0.036752

-------------------------------
LOEWDIN REDUCED ORBITAL CHARGES
-------------------------------
  0 B s       :     2.670139  s :     2.670139
      pz      :     0.887276  p :     2.260979
      px      :     0.747257
      py      :     0.626446
      dz2     :     0.018862  d :     0.143369
      dxz     :     0.026118
      dyz     :     0.040632
      dx2y2   :     0.027034
      dxy     :     0.030722

  1 B s       :     2.654257  s :     2.654257
      pz      :     0.728194  p :     2.150243
      px      :     0.792500
      py      :     0.629549
      dz2     :     0.029424  d :     0.157922
      dxz     :     0.036089
      dyz     :     0.025694
      dx2y2   :     0.033370
      dxy     :     0.033344

  2 B s       :     2.741794  s :     2.741794
      pz      :     0.595036  p :     2.091964
      px      :     0.704160
      py      :     0.792768
      dz2     :     0.024043  d :     0.129566
      dxz     :     0.025761
      dyz     :     0.025559
      dx2y2   :     0.023531
      dxy     :     0.030673

  3 B s       :     2.741565  s :     2.741565
      pz      :     0.725390  p :     2.092647
      px      :     0.534566
      py      :     0.832692
      dz2     :     0.015758  d :     0.129586
      dxz     :     0.023454
      dyz     :     0.032415
      dx2y2   :     0.027189
      dxy     :     0.030771

  4 B s       :     2.742714  s :     2.742714
      pz      :     0.587100  p :     2.091534
      px      :     0.742145
      py      :     0.762289
      dz2     :     0.021364  d :     0.129152
      dxz     :     0.030358
      dyz     :     0.021309
      dx2y2   :     0.030098
      dxy     :     0.026023

  5 B s       :     2.654751  s :     2.654751
      pz      :     0.848842  p :     2.149265
      px      :     0.741897
      py      :     0.558526
      dz2     :     0.037067  d :     0.157668
      dxz     :     0.036383
      dyz     :     0.035638
      dx2y2   :     0.022365
      dxy     :     0.026215

  6 B s       :     2.669985  s :     2.669985
      pz      :     0.724906  p :     2.261186
      px      :     0.893178
      py      :     0.643102
      dz2     :     0.025385  d :     0.143441
      dxz     :     0.029512
      dyz     :     0.022149
      dx2y2   :     0.029418
      dxy     :     0.036977

  7 B s       :     2.669980  s :     2.669980
      pz      :     0.751345  p :     2.261240
      px      :     0.751512
      py      :     0.758384
      dz2     :     0.022987  d :     0.143408
      dxz     :     0.035359
      dyz     :     0.015739
      dx2y2   :     0.037588
      dxy     :     0.031735

  8 B s       :     2.654696  s :     2.654696
      pz      :     0.777484  p :     2.149413
      px      :     0.518158
      py      :     0.853770
      dz2     :     0.027410  d :     0.157824
      dxz     :     0.030825
      dyz     :     0.037725
      dx2y2   :     0.029669
      dxy     :     0.032194

  9 B s       :     2.654630  s :     2.654630
      pz      :     0.493011  p :     2.149684
      px      :     0.764616
      py      :     0.892056
      dz2     :     0.020455  d :     0.157783
      dxz     :     0.030317
      dyz     :     0.034459
      dx2y2   :     0.036575
      dxy     :     0.035978

 10 B s       :     2.669933  s :     2.669933
      pz      :     0.703671  p :     2.260891
      px      :     0.759332
      py      :     0.797888
      dz2     :     0.035229  d :     0.143544
      dxz     :     0.037681
      dyz     :     0.034712
      dx2y2   :     0.016672
      dxy     :     0.019249

 11 B s       :     2.742485  s :     2.742485
      pz      :     0.775106  p :     2.091516
      px      :     0.530022
      py      :     0.786387
      dz2     :     0.027885  d :     0.129247
      dxz     :     0.033087
      dyz     :     0.026935
      dx2y2   :     0.019794
      dxy     :     0.021546



                      *****************************
                      * MAYER POPULATION ANALYSIS *
                      *****************************

  NA   - Mulliken gross atomic population
  ZA   - Total nuclear charge
  QA   - Mulliken gross atomic charge
  VA   - Mayer's total valence
  BVA  - Mayer's bonded valence
  FA   - Mayer's free valence

  ATOM       NA         ZA         QA         VA         BVA        FA
  0 B      5.2812     5.0000    -0.2812     4.0731     4.0731     0.0000
  1 B      4.7005     5.0000     0.2995     3.3623     3.3623     0.0000
  2 B      5.0172     5.0000    -0.0172     3.6975     3.6975     0.0000
  3 B      5.0163     5.0000    -0.0163     3.6990     3.6990    -0.0000
  4 B      5.0195     5.0000    -0.0195     3.6965     3.6965    -0.0000
  5 B      4.7035     5.0000     0.2965     3.3665     3.3665    -0.0000
  6 B      5.2784     5.0000    -0.2784     4.0781     4.0781    -0.0000
  7 B      5.2805     5.0000    -0.2805     4.0724     4.0724     0.0000
  8 B      4.7005     5.0000     0.2995     3.3639     3.3639     0.0000
  9 B      4.7025     5.0000     0.2975     3.3658     3.3658     0.0000
 10 B      5.2825     5.0000    -0.2825     4.0707     4.0707    -0.0000
 11 B      5.0175     5.0000    -0.0175     3.6958     3.6958     0.0000

  Mayer bond orders larger than 0.100000
B(  0-B ,  1-B ) :   0.6420 B(  0-B ,  3-B ) :   0.2065 B(  0-B ,  8-B ) :   0.6438 
B(  0-B , 10-B ) :   0.9065 B(  0-B , 11-B ) :   1.3674 B(  1-B ,  2-B ) :   0.9899 
B(  1-B ,  3-B ) :   0.3203 B(  1-B ,  5-B ) :   0.1358 B(  1-B ,  8-B ) :   0.1402 
B(  1-B ,  9-B ) :   0.1347 B(  1-B , 10-B ) :   0.6441 B(  1-B , 11-B ) :   0.3197 
B(  2-B ,  3-B ) :   0.1474 B(  2-B ,  4-B ) :   0.1111 B(  2-B ,  5-B ) :   0.3198 
B(  2-B ,  6-B ) :   0.2066 B(  2-B ,  7-B ) :   1.3669 B(  2-B ,  9-B ) :   0.3183 
B(  2-B , 11-B ) :   0.1489 B(  3-B ,  4-B ) :   0.1477 B(  3-B ,  5-B ) :   0.9913 
B(  3-B ,  8-B ) :   0.3196 B(  3-B , 10-B ) :   1.3653 B(  3-B , 11-B ) :   0.1113 
B(  4-B ,  5-B ) :   0.3192 B(  4-B ,  6-B ) :   1.3680 B(  4-B ,  7-B ) :   0.2057 
B(  4-B ,  8-B ) :   0.9924 B(  4-B ,  9-B ) :   0.3200 B(  4-B , 11-B ) :   0.1453 
B(  5-B ,  6-B ) :   0.6458 B(  5-B ,  7-B ) :   0.6452 B(  5-B ,  8-B ) :   0.1354 
B(  5-B ,  9-B ) :   0.1398 B(  6-B ,  7-B ) :   0.9021 B(  6-B ,  9-B ) :   0.6464 
B(  7-B ,  9-B ) :   0.6440 B(  8-B ,  9-B ) :   0.1380 B(  8-B , 10-B ) :   0.6427 
B(  8-B , 11-B ) :   0.3182 B(  9-B , 11-B ) :   0.9911 B( 10-B , 11-B ) :   0.2053 


-------
TIMINGS
-------

Total SCF time: 0 days 0 hours 0 min 4 sec 

Total time                  ....       4.566 sec
Sum of individual times     ....       4.025 sec  ( 88.1%)

SCF preparation             ....       0.619 sec  ( 13.6%)
Fock matrix formation       ....       2.953 sec  ( 64.7%)
  Startup                   ....       0.011 sec  (  0.4% of F)
  Split-RI-J                ....       0.999 sec  ( 33.8% of F)
  XC integration            ....       2.096 sec  ( 71.0% of F)
    XC Preparation          ....       0.000 sec  (  0.0% of XC)
    Basis function eval.    ....       0.410 sec  ( 19.6% of XC)
    Density eval.           ....       0.321 sec  ( 15.3% of XC)
    XC-Functional eval.     ....       0.050 sec  (  2.4% of XC)
    XC-Potential eval.      ....       0.382 sec  ( 18.2% of XC)
Diagonalization             ....       0.000 sec  (  0.0%)
Density matrix formation    ....       0.042 sec  (  0.9%)
Total Energy calculation    ....       0.039 sec  (  0.9%)
Population analysis         ....       0.146 sec  (  3.2%)
Orbital Transformation      ....       0.026 sec  (  0.6%)
Orbital Orthonormalization  ....       0.000 sec  (  0.0%)
DIIS solution               ....       0.019 sec  (  0.4%)
SOSCF solution              ....       0.180 sec  (  3.9%)
Finished LeanSCF after   4.7 sec

Maximum memory used throughout the entire LEANSCF-calculation: 12.3 MB


-------------------------------------------------------------------------------
                          DFT DISPERSION CORRECTION                            
                                                                               
                              DFTD3 V3.1  Rev 1                                
                          USING Becke-Johnson damping                          
-------------------------------------------------------------------------------
The BP86 functional is recognized
Active option DFTDOPT                   ...         4   

molecular C6(AA) [au] = 4201.840755 


            DFT-D V3
 parameters
 s6 scaling factor         :     1.0000 
 a1 scaling factor         :     0.3946 
 s8 scaling factor         :     3.2822 
 a2 scaling factor         :     4.8516 
 ad hoc parameters k1-k3   :    16.0000     1.3333    -4.0000 

 Edisp/kcal,au: -23.565646745002  -0.037554244526 
 E6   /kcal   :  -6.715764463 
 E8   /kcal   : -16.849882282 
 % E8         :  71.501887744 

-------------------------   ----------------
Dispersion correction           -0.037554245
-------------------------   ----------------


-------------------------   --------------------
FINAL SINGLE POINT ENERGY      -297.686272528230
-------------------------   --------------------

                                *** OPTIMIZATION RUN DONE ***



           ************************************************************
           *        Program running with 8 parallel MPI-processes     *
           *              working on a common directory               *
           ************************************************************

------------------------------------------------------------------------------
                              ORCA PROPERTY CALCULATIONS
------------------------------------------------------------------------------

GBWName                                 ... random3_nn1.70.gbw
Number of atoms                         ...     12
Number of basis functions               ...    168
Max core memory                         ...   2500 MB

Electric properties:
Dipole moment                           ... YES
Quadrupole moment                       ...  NO
Static polarizability (Dipole/Dipole)   ...  NO
Static polarizability (Dipole/Quad.)    ...  NO
Static polarizability (Quad./Quad.)     ...  NO
Static polarizability (Velocity)        ...  NO
Static hyperpolarizability              ...  NO

Atomic electric properties:
Dipole moment                           ...  NO
Quadrupole moment                       ...  NO
Static polarizability                   ...  NO

Choice of electric origin               ... Center of mass
Position of electric origin             ...     0.000000    -0.000000     0.000000

General magnetic properties:
Magnetizability                         ...  NO

EPR properties:
g-Tensor (aka g-matrix)                 ...  NO
Zero-Field splitting spin-orbit         ...  NO
Zero-field splitting spin-spin          ...  NO
Hyperfine couplings                     ...  NO (   0 nuclei)
Quadrupole couplings                    ...  NO (   0 nuclei)
Contact density                         ...  NO (   0 nuclei)

NMR properties:
Chemical shifts                         ...  NO (   0 nuclei)
Spin-rotation constants                 ...  NO (   0 nuclei)
Spin-spin couplings                     ...  NO (   0 nuclei,    0 pairs)

Choice of magnetic origin               ... GIAO
Position of magnetic origin             ...     0.000000     0.000000     0.000000

Properties with geometric perturbations:
SCF Hessian                             ...  NO
IR spectrum                             ...  NO
VCD spectrum                            ...  NO
X-ray spectroscopy properties:
SCF XES/XAS/RIXS spectra                ...  NO

SCF SOC stabilization energy            ...  NO
Diagonal Born-Oppenheimer correction    ...  NO

-------------
DIPOLE MOMENT
-------------

Method             : SCF
Type of density    : Electron Density
Multiplicity       :   1
Irrep              :   0
Energy             :  -297.6487182837040564 Eh
Basis              : AO
                                X                 Y                 Z
Electronic contribution:     -0.002179275      -0.000087971       0.000754578
Nuclear contribution   :      0.000000000      -0.000000000       0.000000000
                        -----------------------------------------
Total Dipole Moment    :     -0.002179275      -0.000087971       0.000754578
                        -----------------------------------------
Magnitude (a.u.)       :      0.002307893
Magnitude (Debye)      :      0.005866197



--------------------
Rotational spectrum 
--------------------
 
Rotational constants in cm-1:             0.089668             0.053077             0.053053 
Rotational constants in MHz :          2688.187018          1591.194347          1590.482064 

Dipole components along the rotational axes: 
x,y,z [a.u.] :    -0.000327    -0.000994     0.002057 
x,y,z [Debye]:    -0.000831    -0.002526     0.005229 

 

Dipole moment calculation done in   0.1 sec 

Maximum memory used throughout the entire PROP-calculation: 9.9 MB

--------------------------------
SUGGESTED CITATIONS FOR THIS RUN
--------------------------------

Below you find a list of papers that are relevant to this ORCA run
We neither can nor want to force you to cite these papers, but we appreciate if you do
You receive ORCA, which is the product of decades of hard work by many enthusiastic individuals, for free
The only thing we kindly ask in return is that you cite our papers,
We deeply appreciate it, if you show your appreciation for ORCA by not just citing the generic ORCA reference.

Please note that relegating all ORCA citations to the supporting information does *not* help us.
SI sections are not indexed - citations you put there will not count into any citation statistics
But we need these citations in order to attract the funding resources that allow us to do what we are doing

Therefore, if you are a happy ORCA user, please consider citing a few of the papers listed below in the main body of your paper

In addition to the list printed below, the program has created the file random3_nn1.70.bibtex that contains the list in bibtex format
You can import this file easily into all common literature databanks and citation aid programs

It goes without saying that in many instances, there are alternative algorithms to achieve similar
results as the ones you have gotten from ORCA. It is, of course, also the case that in some instances
ORCA just re-implements algorithms worked out by others. We are fully aware of that and we are also
fully appreciative of our colleagues work. Hence this citation list should not be read as indicating
that the listed papers, which are focused on our own work, are the only ones worth citing. It simply
meant to make it easier for users to cite ORCA specific papers. It is not a substitute for doing your
own literature research and citing the relevant literature in a scientifically appropriate manner.

List of essential papers. We consider these as the minimum necessary citations

  1. Neese, F.
     Software update: the ORCA program system, version 6.0
     WIRES Comput. Molec. Sci. 2025 15(1), e70019
     doi.org/10.1002/wcms.70019

List of papers to cite with high priority. The work reported in these papers was absolutely
necessary for this run to complete.
Our perspective: the developers of density functionals and basis sets usually get cited in chemistry papers
Good! But without the algorithms to do something with them, the functionals or basis sets would not do anything.
Hence, in our opinion, the algorithm design and method developments papers are equally worthy of getting cited

  1. Neese, F.
     An improvement of the resolution of the identity approximation for the formation of the Coulomb matrix
     J. Comp. Chem. 2003 24(14), 1740-1747
     doi.org/10.1002/jcc.10318
  2. Grimme, S.; Antony, J.; Ehrlich, S.; Krieg, H.
     A consistent and accurate ab initio parametrization of density functional dispersion correction (DFT-D) for the 94 elements H-Pu
     J. Chem. Phys. 2010 132 , 154104
     doi.org/10.1063/1.3382344
  3. Grimme, S.; Ehrlich, S.; Goerigk, L.
     Effect of the damping function in dispersion corrected density functional theory
     J. Comput. Chem. 2011 32(7), 1456-1465
     doi.org/10.1002/jcc.21759
  4. Neese, F.
     The SHARK Integral Generation and Digestion System
     J. Comp. Chem. 2022 44(3), 381
     doi.org/10.1002/jcc.26942

List of suggested additional citations. These are papers that are important in the 'surrounding' of 
of this run, or papers that preceded the highly important papers. If you like your results we are grateful for a citation.

  1. Neese, F.
     The ORCA program system
     WIRES Comput. Molec. Sci. 2012 2(1), 73-78
     doi.org/10.1002/wcms.81
  2. Neese, F.
     Software update: the ORCA program system, version 4.0
     WIRES Comput. Molec. Sci. 2018 8(1), 1-6
     doi.org/10.1002/wcms.1327
  3. Neese, F.; Wennmohs, F.; Becker, U.; Riplinger, C.
     The ORCA quantum chemistry program package
     J. Chem. Phys. 2020 152(22), 224108
     doi.org/10.1063/5.0004608
  4. Neese, F.
     Software update: The ORCA program system—Version 5.0
     WIRES Comput. Molec. Sci. 2022 12(1), e1606
     doi.org/10.1002/wcms.1606

List of optional additional citations

  1. Neese, F.
     Approximate second-order SCF convergence for spin unrestricted wavefunctions
     Chem. Phys. Lett. 2000 325(1-3), 93-98
     doi.org/10.1016/s0009-2614(00)00662-x

Timings for individual modules:

Sum of individual times          ...      693.989 sec (=  11.566 min)
Startup calculation              ...       84.218 sec (=   1.404 min)  12.1 %
SCF iterations                   ...      486.359 sec (=   8.106 min)  70.1 %
Property calculations            ...        0.772 sec (=   0.013 min)   0.1 %
SCF Gradient evaluation          ...      122.115 sec (=   2.035 min)  17.6 %
Geometry relaxation              ...        0.525 sec (=   0.009 min)   0.1 %
                             ****ORCA TERMINATED NORMALLY****
TOTAL RUN TIME: 0 days 0 hours 12 minutes 14 seconds 362 msec
