
                                 *****************
                                 * O   R   C   A *
                                 *****************

                                            #,                                       
                                            ###                                      
                                            ####                                     
                                            #####                                    
                                            ######                                   
                                           ########,                                 
                                     ,,################,,,,,                         
                               ,,#################################,,                 
                          ,,##########################################,,             
                       ,#########################################, ''#####,          
                    ,#############################################,,   '####,        
                  ,##################################################,,,,####,       
                ,###########''''           ''''###############################       
              ,#####''   ,,,,##########,,,,          '''####'''          '####       
            ,##' ,,,,###########################,,,                        '##       
           ' ,,###''''                  '''############,,,                           
         ,,##''                                '''############,,,,        ,,,,,,###''
      ,#''                                            '''#######################'''  
     '                                                          ''''####''''         
             ,#######,   #######,   ,#######,      ##                                
            ,#'     '#,  ##    ##  ,#'     '#,    #''#        ,####,    ,#,          
            ##       ##  ##   ,#'  ##            #'  '#       #'       ,# #          
            ##       ##  #######   ##           ,######,      #####,      #          
            '#,     ,#'  ##    ##  '#,     ,#' ,#      #,     #,   #      #          
             '#######'   ##     ##  '#######'  #'      '#     '####' #    #          



                #########################################################
                #                        -***-                          #
                #          Department of theory and spectroscopy        #
                #                                                       #
                #                      Frank Neese                      #
                #                                                       #
                #     Directorship, Architecture, Infrastructure        #
                #                    SHARK, DRIVERS                     #
                #        Core code/Algorithms in most modules           #
                #                                                       #
                #        Max Planck Institute fuer Kohlenforschung      #
                #                Kaiser Wilhelm Platz 1                 #
                #                 D-45470 Muelheim/Ruhr                 #
                #                      Germany                          #
                #                                                       #
                #                  All rights reserved                  #
                #                        -***-                          #
                #########################################################


                         Program Version 6.1.1  -  RELEASE   -
                                (GIT: $487d211c$)
                          ($2025-11-21 10:33:24 +0100$)
                                                                         
                                  - NO-DMRG VERSION -                    
                                                                         


 With contributions from (in alphabetic order):
[Max-Planck-Institut fuer Kohlenforschung]                               
  Daniel Aravena         : Magnetic Suceptibility                        
  Michael Atanasov       : Ab Initio Ligand Field Theory (pilot matlab implementation)
  Alexander A. Auer      : GIAO ZORA, VPT2 properties, NMR spectrum      
  Ute Becker             : All parallelization in ORCA, NUMFREQ, NUMCALC 
  Giovanni Bistoni       : ED, misc. LED, open-shell LED, HFLD           
  Dmytro Bykov           : pre 5.0 version of the SCF Hessian            
  Marcos Casanova-Páez   : Triplet and SCS-CIS(D). UHF-(DLPNO)-IP/EA/STEOM-CCSD. UHF-CVS-IP/STEOM-CCSD   
  Vijay G. Chilkuri      : MRCI spin determinant printing, contributions to CSF-ICE 
  Pauline Colinet        : FMM embedding                                 
  Dipayan Datta          : RHF DLPNO-CCSD density                        
  Achintya Kumar Dutta   : EOM-CC, STEOM-CC                              
  Nicolas Foglia         : Exact transition moments, OPA infrastructure, MCD improvements    
  Dmitry Ganyushin       : Spin-Orbit,Spin-Spin,Magnetic field MRCI      
  Miquel Garcia-Rates    : C-PCM and meta-GGA Hessian, CCSD/C-PCM, Gaussian charge scheme 
  Tiago L. C. Gouveia    : GS-ROHF, GS-ROCIS                             
  Yang Guo               : DLPNO-NEVPT2, F12-NEVPT2, CIM, IAO-localization        
  Andreas Hansen         : Spin unrestricted coupled pair/coupled cluster methods 
  Ingolf Harden          : AUTO-CI MPn and infrastructure                
  Benjamin Helmich-Paris : MC-RPA, TRAH-(SCF,CASSCF), AVAS, COSX integrals, SCF dyn. polar., MC-PDFT, srDFT 
  Lee Huntington         : MR-EOM, pCC                                   
  Robert Izsak           : Overlap fitted RIJCOSX, COSX-SCS-MP3, EOM     
  Riya Kayal             : Wick's Theorem for AUTO-CI, AUTO-CI UHF-CCSDT 
  Emily Kempfer          : AUTO-CI RHF CISDT and CCSDT, approximate NEVPT4
  Christian Kollmar      : KDIIS, OOCD, Brueckner-CCSD(T), CCSD density, CASPT2, CASPT2-K, improved NEVPT2 
  Axel Koslowski         : Symmetry handling                             
  Simone Kossmann        : meta-GGA functionals, TD-DFT gradient, OOMP2, (MP2 Hessian; deprecated post 5.0) 
  Lucas Lang             : DCDCAS, Hyperfine gauge corrections, ICE-SOC+SSC
  Marvin Lechner         : AUTO-CI (C++ implementation), FIC-MRCC        
  Spencer Leger          : CASSCF response                               
  Dagmar Lenk            : GEPOL surface, SMD, ORCA-2-JSON               
  Dimitrios Liakos       : Extrapolation schemes; Compound Job, Property file
  Dimitrios Manganas     : Further ROCIS development; embedding schemes. LFT, Crystal Embedding 
  Dimitrios Pantazis     : SARC Basis sets                               
  Anastasios Papadopoulos: AUTO-CI, single reference methods and gradients 
  Taras Petrenko         : pre 6.0 DFT Hessian and TD-DFT gradient,  ECA, NRVS 
  Petra Pikulova         : Analytic Raman intensities                    
  Peter Pinski           : DLPNO-MP2, DLPNO-MP2 Gradient                 
  Shashank Vittal Rao    : ES-AILFT, MagRelax                            
  Christoph Reimann      : Effective Core Potentials                     
  Marius Retegan         : Local ZFS, SOC                                
  Christoph Riplinger    : Optimizer, TS searches, QM/MM, DLPNO-CCSD(T), (RO)-DLPNO pert. Triples 
  Michael Roemelt        : Original ROCIS implementation, recursive CI coupling coefficients
  Masaaki Saitow         : Open-shell DLPNO-CCSD energy and density      
  Barbara Sandhoefer     : DKH picture change effects                    
  Yorick L. A. Schmerwitz: GMF and freeze-and-release deltaSCF, NEB S-IDPP initial path                    
  Kantharuban Sivalingam : CASSCF convergence/infrastructure, NEVPT2, NEVPT3, NEVPT4(SD), FIC-MRCI and CEPA variants
  Bernardo de Souza      : ESD, SOC TD-DFT                               
  Georgi L. Stoychev     : AutoAux, RI-MP2 NMR, DLPNO-MP2 response, X2C  
  Van Anh Tran           : RI-MP2 g-tensors                              
  Willem Van den Heuvel  : Paramagnetic NMR                              
  Zikuan Wang            : NOTCH, Electric field optimization            
  Frank Wennmohs         : Technical directorship and infrastructure     
  Hang Xu                : AUTO-CI-Response properties                   
                                                                         
[FACCTs GmbH]                                                            
  Markus Bursch, Nicolas Foglia, Miquel Garcia-Rates, Ingolf Harden, Hagen Neugebauer, Anastasios Papadopoulos, 
  Christoph Riplinger, Bernardo de Souza, Georgi L. Stoychev                                                    
                                                                 
  APM, various basis sets, CI-OPT, improved COSX, DLPNO-Multilevel,           
  DOCKER, DRACO, updates on ESD, Fragmentator, GOAT, IRC, LR-CPCM, L-BFGS, MBIS, meta-GGA TD-DFT gradient, ML-optimized integration grids, 
  MM, NACMEs, nearIR, NEB, NEB-TS, NL-DFT gradient (VV10), 2- and 3-layer-ONIOM, interface openCOSMO-RS, QMMM,   
  Crystal-QMMM, RESP, rigid body optimization, SF, symmetry and pop. for TD-DFT, various functionals, SOLVATOR                                   
                                                                         
[Other institutions]                                                     
  V. Asgeirsson          : NEB                                           
  Christoph Bannwarth    : sTDA-DFT, sTD-DFT, PBEh-3c, B97-3c, D3        
  Giovanni Bistoni       : ETS/NOCV, ADLD/ADEX, COVALED                  
  Martin Brehm           : Molecular dynamics                            
  Ronald Cardenas        : ETS/NOCV                                      
  Martina Colucci        : COVALED                                       
  Sebastian Ehlert       : rSCAN, r2SCAN, r2SCAN-3c, D4, dhf basis sets  
  Marvin Friede          : D4 for Fr, Ra, Ac-Lr                          
  Lars Goerigk           : TD-DFT with DH, B97 family of functionals     
  Stefan Grimme          : VdW corrections, initial TS optimization, DFT functionals, gCP, sTDA/sTD-DF 
  Waldemar Hujo          : DFT-NL                                        
  H. Jonsson             : NEB                                           
  Holger Kruse           : gCP                                           
  Marcel Mueller         : wB97X-3c, vDZP basis set                      
  Hagen Neugebauer       : wr2SCAN, Native XTB                           
  Gianluca Regni         : ADLD/ADEX                                     
  Tobias Risthaus        : pre 6.0 range-separated hybrid DFT and stability analysis
  Lukas Wittmann         : regularized MP2, r2SCAN double-hybrids, wr2SCAN        
                                                                         
We gratefully acknowledge several colleagues who have allowed us to      
interface, adapt or use parts of their codes:                            
  Ed Valeev, F. Pavosevic, A. Kumar             : LibInt (2-el integral package), F12 methods 
  Garnet Chan, S. Sharma, J. Yang, R. Olivares  : DMRG                   
  Ulf Ekstrom                                   : XCFun DFT Library      
  Mihaly Kallay                                 : mrcc  (arbitrary order and MRCC methods)
  Frank Weinhold                                : gennbo (NPA and NBO analysis)           
  Simon Mueller                                 : openCOSMO-RS                            
  Christopher J. Cramer and Donald G. Truhlar   : smd solvation model                     
  S Lehtola, MJT Oliveira, MAL Marques          : LibXC Library                           
  Liviu Ungur et al                             : ANISO software                          


 Your calculation uses the libint2 library for the computation of 2-el integrals
 For citations please refer to: http://libint.valeyev.net

 Your ORCA version has been built with support for libXC version: 7.0.0
 For citations please refer to: https://libxc.gitlab.io

 This ORCA versions uses:
   CBLAS   interface :  Fast vector & matrix operations
   LAPACKE interface :  Fast linear algebra routines
   SCALAPACK package :  Parallel linear algebra routines
   Shared memory     :  Shared parallel matrices
   BLAS/LAPACK       :  OpenBLAS 0.3.29  USE64BITINT DYNAMIC_ARCH NO_AFFINITY Zen SINGLE_THREADED
        Core in use  :  Zen
   Copyright (c) 2011-2014, The OpenBLAS Project


  ***********************************
  * Starting time: Fri Apr 24 03:48:08 2026
  * Host name:     vmi3233575
  * Process ID:    1678747
  * Working dir.:  /root/b12_scan/jobs/random5_nn2.00
  ***********************************

NOTE: MaxCore=2500 MB was set to SCF,MP2,MDCI,CIPSI,MRCI,RASCI and CIS
      => If you want to overwrite this, your respective input block should be placed after the MaxCore statement
Your calculation utilizes the atom-pairwise dispersion correction
with the Becke-Johnson damping scheme (D3BJ)


================================================================================

----- Orbital basis set information -----
Your calculation utilizes the basis: def2-SVP
   F. Weigend and R. Ahlrichs, Phys. Chem. Chem. Phys. 7, 3297 (2005).

----- AuxJ basis set information -----
Your calculation utilizes the auxiliary basis: def2/J
   H-Rn: F. Weigend, Phys. Chem. Chem. Phys. 8, 1057 (2006).
   Fr-Lr: K. Eichkorn, F. Weigend, O. Treutler, R. Ahlrichs; Theor. Chem. Acc. 97, 119 (1997).

================================================================================
                                        WARNINGS
                       Please study these warnings very carefully!
================================================================================


WARNING: Geometry Optimization
  ===> : Switching off AutoStart
         For restart on a previous wavefunction, please use MOREAD

================================================================================
                                       INPUT FILE
================================================================================
NAME = random5_nn2.00.inp
|  1> ! BP86 def2-SVP def2/J RI Opt TightSCF D3BJ
|  2> ! SlowConv
|  3> 
|  4> %pal nprocs 8 end
|  5> %maxcore 2500
|  6> 
|  7> %geom
|  8>   MaxIter 300
|  9> end
| 10> 
| 11> * xyz 0 1
| 12> B      2.14498576      1.96487670     -0.14201429
| 13> B      2.42701899     -1.02264892     -0.30235995
| 14> B      1.22246649     -3.40672400      0.14751365
| 15> B      1.24038420      2.41169196     -2.21266072
| 16> B     -0.50319038     -2.38256902     -1.51078539
| 17> B      1.37936185     -0.61903057      1.89704761
| 18> B     -1.94937645     -1.54475548      1.90380606
| 19> B      0.00296309     -0.20317943     -2.14884896
| 20> B     -0.77094280      2.88874545      0.15156611
| 21> B     -1.91616876      1.48663290      1.00158841
| 22> B     -2.63761345     -0.05420095     -1.99105684
| 23> B     -0.63988853      0.48116135      3.20620432
| 24> *
| 25> 
| 26>                          ****END OF INPUT****
================================================================================

                       *****************************
                       * Geometry Optimization Run *
                       *****************************

Geometry optimization settings:
Update method            Update   .... BFGS
Choice of coordinates    CoordSys .... (2022) Redundant Internals
Initial Hessian          InHess   .... Almloef's Model
Max. no of cycles        MaxIter  .... 300

Convergence Tolerances:
Energy Change            TolE     ....  5.0000e-06 Eh
Max. Gradient            TolMAXG  ....  3.0000e-04 Eh/bohr
RMS Gradient             TolRMSG  ....  1.0000e-04 Eh/bohr
Max. Displacement        TolMAXD  ....  4.0000e-03 bohr
RMS Displacement         TolRMSD  ....  2.0000e-03 bohr
Strict Convergence                .... False

------------------------------------------------------------------------------
                        ORCA OPTIMIZATION COORDINATE SETUP
------------------------------------------------------------------------------

The optimization will be done in redundant internal coordinates (2022)
Making redundant internal coordinates   ...  (2022 redundants) done
Evaluating the initial hessian          ...  (Almloef) done
Evaluating the coordinates              ...  done
Calculating the B-matrix                .... done
Calculating the G-matrix                .... done
The number of degrees of freedom        ....  182

    -----------------------------------------------------------------
                    Redundant Internal Coordinates


    -----------------------------------------------------------------
         Definition                    Initial Value    Approx d2E/dq
    -----------------------------------------------------------------
      1. B(B   1,B   0)                  3.0051         0.010000   
      2. B(B   2,B   1)                  2.7087         0.010000   
      3. B(B   3,B   0)                  2.3034         0.029251   
      4. B(B   4,B   1)                  3.4490         0.010000   
      5. B(B   4,B   2)                  2.6032         0.010000   
      6. B(B   5,B   1)                  2.4694         0.015896   
      7. B(B   6,B   5)                  3.4551         0.010000   
      8. B(B   7,B   3)                  2.8936         0.010000   
      9. B(B   7,B   1)                  3.1555         0.010000   
     10. B(B   7,B   4)                  2.3266         0.026859   
     11. B(B   7,B   0)                  3.6491         0.010000   
     12. B(B   8,B   3)                  3.1405         0.010000   
     13. B(B   8,B   0)                  3.0728         0.010000   
     14. B(B   9,B   6)                  3.1630         0.010000   
     15. B(B   9,B   8)                  2.0000         0.089157   
     16. B(B  10,B   7)                  2.6495         0.010000   
     17. B(B  10,B   9)                  3.4425         0.010000   
     18. B(B  10,B   4)                  3.1950         0.010000   
     19. B(B  11,B   9)                  2.7386         0.010000   
     20. B(B  11,B   5)                  2.6461         0.010000   
     21. B(B  11,B   6)                  2.7414         0.010000   
     22. A(B   3,B   0,B   7)           52.4348         0.118516   
     23. A(B   1,B   0,B   3)          100.4712         0.139422   
     24. A(B   7,B   0,B   8)           70.9829         0.104567   
     25. A(B   1,B   0,B   7)           55.6039         0.105469   
     26. A(B   3,B   0,B   8)           69.8115         0.136660   
     27. A(B   1,B   0,B   8)          113.1448         0.115593   
     28. A(B   0,B   1,B   2)          145.5285         0.124996   
     29. A(B   0,B   1,B   4)          109.3263         0.108450   
     30. A(B   2,B   1,B   4)           48.1913         0.113885   
     31. A(B   5,B   1,B   7)           98.7908         0.127758   
     32. A(B   4,B   1,B   5)           90.9207         0.119364   
     33. A(B   2,B   1,B   7)           89.0914         0.120765   
     34. A(B   2,B   1,B   5)           78.8878         0.145195   
     35. A(B   0,B   1,B   5)           75.5323         0.132921   
     36. A(B   0,B   1,B   7)           72.5993         0.113827   
     37. A(B   4,B   1,B   7)           40.9507         0.106164   
     38. A(B   1,B   2,B   4)           80.9509         0.139277   
     39. A(B   7,B   3,B   8)           81.1868         0.116581   
     40. A(B   0,B   3,B   8)           66.6860         0.134054   
     41. A(B   0,B   3,B   7)           88.4428         0.144321   
     42. A(B   2,B   4,B   7)          113.5166         0.158081   
     43. A(B   1,B   4,B  10)          109.4443         0.105610   
     44. A(B   1,B   4,B   2)           50.8578         0.116167   
     45. A(B   2,B   4,B  10)          145.6211         0.122557   
     46. A(B   7,B   4,B  10)           54.6519         0.131235   
     47. A(B   1,B   4,B   7)           62.7366         0.123192   
     48. A(B   1,B   5,B   6)          111.5119         0.119212   
     49. A(B   6,B   5,B  11)           51.3342         0.115085   
     50. A(B   1,B   5,B  11)          146.3438         0.148200   
     51. A(B   5,B   6,B   9)           74.4869         0.105972   
     52. A(B   5,B   6,B  11)           48.9074         0.113097   
     53. A(B   9,B   6,B  11)           54.7068         0.119721   
     54. A(B   3,B   7,B  10)          112.1298         0.130487   
     55. A(B   0,B   7,B   3)           39.1224         0.107069   
     56. A(B   0,B   7,B   4)          122.2367         0.117952   
     57. A(B   1,B   7,B  10)          138.1913         0.122368   
     58. A(B   1,B   7,B   4)           76.3127         0.132644   
     59. A(B   0,B   7,B   1)           51.7969         0.103533   
     60. A(B   4,B   7,B  10)           79.6022         0.155474   
     61. A(B   1,B   7,B   3)           85.3580         0.116239   
     62. A(B   0,B   7,B  10)          121.2561         0.111135   
     63. A(B   3,B   7,B   4)          161.0114         0.143263   
     64. A(B   0,B   8,B   3)           43.5025         0.112762   
     65. A(B   3,B   8,B   9)          125.4644         0.146981   
     66. A(B   0,B   8,B   9)          111.9132         0.150335   
     67. A(B   6,B   9,B  10)           79.4436         0.106150   
     68. A(B   6,B   9,B  11)           54.7885         0.119791   
     69. A(B   6,B   9,B   8)          143.0475         0.145906   
     70. A(B  10,B   9,B  11)          129.2828         0.113406   
     71. A(B   8,B   9,B  10)           93.6877         0.134106   
     72. A(B   8,B   9,B  11)          109.4309         0.169982   
     73. A(B   4,B  10,B   7)           45.7459         0.121291   
     74. A(B   4,B  10,B   9)           93.1819         0.105700   
     75. A(B   7,B  10,B   9)           82.4191         0.115285   
     76. A(B   6,B  11,B   9)           70.5047         0.132718   
     77. A(B   5,B  11,B   6)           79.7583         0.136216   
     78. A(B   5,B  11,B   9)           96.3155         0.136325   
     79. D(B   4,B   1,B   0,B   3)    -47.0480         0.010000   
     80. D(B   2,B   1,B   0,B   8)    -17.1614         0.010000   
     81. D(B   2,B   1,B   0,B   7)    -60.9326         0.010000   
     82. D(B   2,B   1,B   0,B   3)    -89.5433         0.010000   
     83. D(B   7,B   1,B   0,B   3)    -28.6108         0.010000   
     84. D(B   4,B   1,B   0,B   7)    -18.4373         0.010000   
     85. D(B   7,B   1,B   0,B   8)     43.7711         0.010000   
     86. D(B   4,B   2,B   1,B   5)    101.3988         0.010000   
     87. D(B   4,B   2,B   1,B   7)      2.2568         0.010000   
     88. D(B   4,B   2,B   1,B   0)     58.7847         0.010000   
     89. D(B   7,B   3,B   0,B   8)    -81.0726         0.010000   
     90. D(B   7,B   3,B   0,B   1)     29.8998         0.010000   
     91. D(B   8,B   3,B   0,B   7)     81.0726         0.010000   
     92. D(B   8,B   3,B   0,B   1)    110.9725         0.010000   
     93. D(B   2,B   4,B   1,B   7)   -176.5558         0.010000   
     94. D(B   2,B   4,B   1,B   5)    -74.1585         0.010000   
     95. D(B  10,B   4,B   1,B   2)    147.2636         0.010000   
     96. D(B   7,B   4,B   2,B   1)     -3.3387         0.010000   
     97. D(B  10,B   4,B   2,B   1)    -64.5650         0.010000   
     98. D(B   2,B   4,B   1,B   0)   -149.1388         0.010000   
     99. D(B   7,B   4,B   1,B   5)    102.3973         0.010000   
    100. D(B   7,B   4,B   1,B   0)     27.4171         0.010000   
    101. D(B   7,B   4,B   1,B   2)    176.5558         0.010000   
    102. D(B   6,B   5,B   1,B   2)    -49.4152         0.010000   
    103. D(B  11,B   5,B   1,B   2)   -101.1169         0.010000   
    104. D(B  11,B   5,B   1,B   7)    -13.7951         0.010000   
    105. D(B  11,B   5,B   1,B   0)     55.5696         0.010000   
    106. D(B   6,B   5,B   1,B   0)    107.2712         0.010000   
    107. D(B  11,B   5,B   1,B   4)    -54.1662         0.010000   
    108. D(B   9,B   6,B   5,B   1)    -89.7579         0.010000   
    109. D(B  11,B   6,B   5,B   1)   -146.1487         0.010000   
    110. D(B   9,B   6,B   5,B  11)     56.3907         0.010000   
    111. D(B  10,B   7,B   4,B   2)   -142.6411         0.010000   
    112. D(B   0,B   7,B   4,B  10)    120.5271         0.010000   
    113. D(B   0,B   7,B   4,B   2)    -22.1140         0.010000   
    114. D(B   3,B   7,B   4,B   1)    -15.4765         0.010000   
    115. D(B   3,B   7,B   4,B   2)    -12.5638         0.010000   
    116. D(B   1,B   7,B   3,B   0)    -27.9277         0.010000   
    117. D(B  10,B   7,B   3,B   8)     46.1674         0.010000   
    118. D(B  10,B   7,B   3,B   0)    112.8121         0.010000   
    119. D(B   4,B   7,B   3,B   8)    -79.4953         0.010000   
    120. D(B   4,B   7,B   3,B   0)    -12.8506         0.010000   
    121. D(B   0,B   7,B   3,B   8)    -66.6447         0.010000   
    122. D(B   0,B   7,B   1,B   5)     71.7362         0.010000   
    123. D(B   0,B   7,B   1,B   2)    150.3454         0.010000   
    124. D(B   3,B   7,B   1,B   5)     93.8265         0.010000   
    125. D(B   0,B   7,B   1,B   4)    152.9122         0.010000   
    126. D(B   3,B   7,B   1,B   4)    175.0026         0.010000   
    127. D(B   3,B   7,B   1,B   0)     22.0904         0.010000   
    128. D(B   4,B   7,B   1,B   2)     -2.5668         0.010000   
    129. D(B   3,B   7,B   1,B   2)    172.4358         0.010000   
    130. D(B   4,B   7,B   0,B   8)   -106.1775         0.010000   
    131. D(B   4,B   7,B   0,B   1)     31.5372         0.010000   
    132. D(B   3,B   7,B   4,B  10)    130.0773         0.010000   
    133. D(B  10,B   7,B   0,B   3)    -87.2554         0.010000   
    134. D(B   4,B   7,B   0,B   3)    175.0920         0.010000   
    135. D(B   3,B   7,B   0,B   8)     78.7305         0.010000   
    136. D(B   0,B   7,B   4,B   1)    -25.0266         0.010000   
    137. D(B   3,B   7,B   0,B   1)   -143.5548         0.010000   
    138. D(B  10,B   7,B   0,B   1)    129.1897         0.010000   
    139. D(B   9,B   8,B   0,B   1)     25.9254         0.010000   
    140. D(B   9,B   8,B   0,B   7)     63.0662         0.010000   
    141. D(B   9,B   8,B   0,B   3)    118.9870         0.010000   
    142. D(B   0,B   8,B   3,B   7)     92.1131         0.010000   
    143. D(B   9,B   8,B   3,B   7)      6.9875         0.010000   
    144. D(B   9,B   8,B   3,B   0)    -85.1256         0.010000   
    145. D(B   3,B   8,B   0,B   1)    -93.0616         0.010000   
    146. D(B   3,B   8,B   0,B   7)    -55.9208         0.010000   
    147. D(B   6,B   9,B   8,B   0)    -10.0447         0.010000   
    148. D(B  10,B   9,B   8,B   3)    -39.6799         0.010000   
    149. D(B  10,B   9,B   8,B   0)    -87.3527         0.010000   
    150. D(B  11,B   9,B   8,B   3)     94.3885         0.010000   
    151. D(B  11,B   9,B   8,B   0)     46.7157         0.010000   
    152. D(B  10,B   9,B   6,B   5)    106.6324         0.010000   
    153. D(B  10,B   9,B   6,B  11)    156.8966         0.010000   
    154. D(B  11,B   9,B   6,B   5)    -50.2642         0.010000   
    155. D(B   8,B   9,B   6,B   5)     24.6166         0.010000   
    156. D(B   8,B   9,B   6,B  11)     74.8808         0.010000   
    157. D(B   4,B  10,B   9,B  11)    -17.9919         0.010000   
    158. D(B   4,B  10,B   9,B   8)    100.9158         0.010000   
    159. D(B   7,B  10,B   9,B   6)    -87.0231         0.010000   
    160. D(B   7,B  10,B   9,B   8)     56.3529         0.010000   
    161. D(B   9,B  10,B   7,B   4)    101.9962         0.010000   
    162. D(B   9,B  10,B   7,B   0)    -19.5395         0.010000   
    163. D(B   9,B  10,B   7,B   3)    -62.4126         0.010000   
    164. D(B   4,B  10,B   7,B   1)    -55.5257         0.010000   
    165. D(B   4,B  10,B   7,B   0)   -121.5357         0.010000   
    166. D(B   4,B  10,B   7,B   3)   -164.4088         0.010000   
    167. D(B   9,B  10,B   4,B   1)    -43.9715         0.010000   
    168. D(B   7,B  10,B   9,B  11)    -62.5548         0.010000   
    169. D(B   9,B  10,B   4,B   2)      3.9965         0.010000   
    170. D(B   9,B  10,B   4,B   7)    -76.1939         0.010000   
    171. D(B   7,B  10,B   4,B   1)     32.2225         0.010000   
    172. D(B   7,B  10,B   4,B   2)     80.1904         0.010000   
    173. D(B   6,B  11,B   9,B  10)    -29.8920         0.010000   
    174. D(B   5,B  11,B   9,B   6)     76.7649         0.010000   
    175. D(B   5,B  11,B   9,B  10)     46.8730         0.010000   
    176. D(B   5,B  11,B   9,B   8)    -65.2545         0.010000   
    177. D(B   9,B  11,B   6,B   5)    100.5182         0.010000   
    178. D(B   5,B  11,B   6,B   9)   -100.5182         0.010000   
    179. D(B   6,B  11,B   5,B   1)     69.2436         0.010000   
    180. D(B   6,B  11,B   9,B   8)   -142.0194         0.010000   
    181. D(B   9,B  11,B   5,B   6)    -68.8261         0.010000   
    182. D(B   9,B  11,B   5,B   1)      0.4175         0.010000   
    -----------------------------------------------------------------

Number of atoms                         .... 12
Number of degrees of freedom            .... 182


         *************************************************************
         *                GEOMETRY OPTIMIZATION CYCLE   1            *
         *************************************************************
---------------------------------
CARTESIAN COORDINATES (ANGSTROEM)
---------------------------------
  B      2.144986    1.964877   -0.142014
  B      2.427019   -1.022649   -0.302360
  B      1.222466   -3.406724    0.147514
  B      1.240384    2.411692   -2.212661
  B     -0.503190   -2.382569   -1.510785
  B      1.379362   -0.619031    1.897048
  B     -1.949376   -1.544755    1.903806
  B      0.002963   -0.203179   -2.148849
  B     -0.770943    2.888745    0.151566
  B     -1.916169    1.486633    1.001588
  B     -2.637613   -0.054201   -1.991057
  B     -0.639889    0.481161    3.206204

----------------------------
CARTESIAN COORDINATES (A.U.)
----------------------------
  NO LB      ZA    FRAG     MASS         X           Y           Z
   0 B     5.0000    0    10.810    4.053436    3.713079   -0.268368
   1 B     5.0000    0    10.810    4.586401   -1.932526   -0.571377
   2 B     5.0000    0    10.810    2.310127   -6.437775    0.278760
   3 B     5.0000    0    10.810    2.343986    4.557437   -4.181323
   4 B     5.0000    0    10.810   -0.950892   -4.502403   -2.854971
   5 B     5.0000    0    10.810    2.606616   -1.169798    3.584900
   6 B     5.0000    0    10.810   -3.683788   -2.919165    3.597672
   7 B     5.0000    0    10.810    0.005599   -0.383953   -4.060736
   8 B     5.0000    0    10.810   -1.456871    5.458938    0.286418
   9 B     5.0000    0    10.810   -3.621034    2.809329    1.892728
  10 B     5.0000    0    10.810   -4.984367   -0.102425   -3.762552
  11 B     5.0000    0    10.810   -1.209214    0.909263    6.058848

--------------------------------
INTERNAL COORDINATES (ANGSTROEM)
--------------------------------
 B      0   0   0     0.000000000000     0.00000000     0.00000000
 B      1   0   0     3.005089483470     0.00000000     0.00000000
 B      2   1   0     2.708716849047   145.52848617     0.00000000
 B      1   2   3     2.303372418215   100.47117113   270.45666942
 B      3   2   1     2.603217386639    80.95092934    58.78467186
 B      2   1   3     2.469389979415    75.53225382   316.67607571
 B      6   2   1     3.455070325699   111.51186476   107.27120715
 B      5   3   2     2.326597395244   113.51657420   356.66127158
 B      1   2   3     3.072842704324   113.14478540   342.83859071
 B      9   1   2     2.000000003206   111.91319795    25.92540986
 B      8   5   3     2.649478704243    79.60219773   217.35892855
 B      6   2   1     2.646069849664   146.34383728    55.56960116

---------------------------
INTERNAL COORDINATES (A.U.)
---------------------------
 B      0   0   0     0.000000000000     0.00000000     0.00000000
 B      1   0   0     5.678796131685     0.00000000     0.00000000
 B      2   1   0     5.118733019037   145.52848617     0.00000000
 B      1   2   3     4.352743054855   100.47117113   270.45666942
 B      3   2   1     4.919367927811    80.95092934    58.78467186
 B      2   1   3     4.666470778944    75.53225382   316.67607571
 B      6   2   1     6.529136689010   111.51186476   107.27120715
 B      5   3   2     4.396631900905   113.51657420   356.66127158
 B      1   2   3     5.806831163789   113.14478540   342.83859071
 B      9   1   2     3.779452273900   111.91319795    25.92540986
 B      8   5   3     5.006789148675    79.60219773   217.35892855
 B      6   2   1     5.000347347091   146.34383728    55.56960116

---------------------
BASIS SET INFORMATION
---------------------
There are 1 groups of distinct atoms

 Group   1 Type B   : 7s4p1d contracted to 3s2p1d pattern {511/31/1}

Atom   0B    basis set group =>   1
Atom   1B    basis set group =>   1
Atom   2B    basis set group =>   1
Atom   3B    basis set group =>   1
Atom   4B    basis set group =>   1
Atom   5B    basis set group =>   1
Atom   6B    basis set group =>   1
Atom   7B    basis set group =>   1
Atom   8B    basis set group =>   1
Atom   9B    basis set group =>   1
Atom  10B    basis set group =>   1
Atom  11B    basis set group =>   1
---------------------------------
AUXILIARY/J BASIS SET INFORMATION
---------------------------------
There are 1 groups of distinct atoms

 Group   1 Type B   : 12s5p4d2f1g contracted to 6s4p3d1f1g pattern {711111/2111/211/2/1}

Atom   0B    basis set group =>   1
Atom   1B    basis set group =>   1
Atom   2B    basis set group =>   1
Atom   3B    basis set group =>   1
Atom   4B    basis set group =>   1
Atom   5B    basis set group =>   1
Atom   6B    basis set group =>   1
Atom   7B    basis set group =>   1
Atom   8B    basis set group =>   1
Atom   9B    basis set group =>   1
Atom  10B    basis set group =>   1
Atom  11B    basis set group =>   1


           ************************************************************
           *        Program running with 8 parallel MPI-processes     *
           *              working on a common directory               *
           ************************************************************
------------------------------------------------------------------------------
                             ORCA STARTUP CALCULATIONS
                           -- RI-GTO INTEGRALS CHOSEN --
------------------------------------------------------------------------------
------------------------------------------------------------------------------
                   ___                                                        
                  /   \      - P O W E R E D   B Y -                         
                 /     \                                                     
                 |  |  |   _    _      __       _____    __    __             
                 |  |  |  | |  | |    /  \     |  _  \  |  |  /  |          
                  \  \/   | |  | |   /    \    | | | |  |  | /  /          
                 / \  \   | |__| |  /  /\  \   | |_| |  |  |/  /          
                |  |  |   |  __  | /  /__\  \  |    /   |      \           
                |  |  |   | |  | | |   __   |  |    \   |  |\   \          
                \     /   | |  | | |  |  |  |  | |\  \  |  | \   \       
                 \___/    |_|  |_| |__|  |__|  |_| \__\ |__|  \__/        
                                                                              
                      - O R C A' S   B I G   F R I E N D -                    
                                      &                                       
                       - I N T E G R A L  F E E D E R -                       
                                                                              
 v1 FN, 2020, v2 2021, v3 2022-2024                                           
------------------------------------------------------------------------------


----------------------
SHARK INTEGRAL PACKAGE
----------------------

Number of atoms                             ...     12
Number of basis functions                   ...    168
Number of shells                            ...     72
Maximum angular momentum                    ...      2
Integral batch strategy                     ... SHARK/LIBINT Hybrid
RI-J (if used) integral strategy            ... SPLIT-RIJ (Revised 2003 algorithm where possible)
Printlevel                                  ...      1
Contraction scheme used                     ... SEGMENTED contraction
Prescreening option                         ... SCHWARTZ
   Thresh                                   ... 2.500e-11
   Tcut                                     ... 2.500e-12
   Tpresel                                  ... 2.500e-12 
Coulomb Range Separation                    ... NOT USED
Exchange Range Separation                   ... NOT USED
Multipole approximations                    ... NOT USED
Finite Nucleus Model                        ... NOT USED
CABS basis                                  ... NOT available
Auxiliary Coulomb fitting basis             ... AVAILABLE
   # of basis functions in Aux-J            ...    588
   # of shells in Aux-J                     ...    180
   Maximum angular momentum in Aux-J        ...      4
Auxiliary J/K fitting basis                 ... NOT available
Auxiliary Correlation fitting basis         ... NOT available
Auxiliary 'external' fitting basis          ... NOT available

Checking pre-screening integrals            ... done (  0.0 sec) Dimension = 72
   => SHARK Basis and OBASIS are compatible. Storing Pre-screening
Shell pair information
Shell pair cut-off parameter TPreSel        ...   2.5e-12
Total number of shell pairs                 ...      2628
Shell pairs after pre-screening             ...      2442
Total number of primitive shell pairs       ...     10596
Primitive shell pairs kept                  ...      6583
          la=0 lb=0:    587 shell pairs
          la=1 lb=0:    822 shell pairs
          la=1 lb=1:    300 shell pairs
          la=2 lb=0:    372 shell pairs
          la=2 lb=1:    286 shell pairs
          la=2 lb=2:     75 shell pairs

Checking whether 4 symmetric matrices of dimension 168 fit in memory
:Max Core in MB      =   2500.00
 MB in use           =      6.55
 MB left             =   2493.45
 MB needed           =      0.43
 Data fit in memory  = YES
Calculating RI/J V-Matrix + Cholesky decomp.... done (  0.0 sec)
Calculating Nuclear repulsion               ... done (  0.0 sec) ENN=    223.235342513368 Eh

Diagonalization of the overlap matrix:
Smallest eigenvalue                        ... 8.675e-03
Time for diagonalization                   ...    0.004 sec
Threshold for overlap eigenvalues          ... 1.000e-07
Number of eigenvalues below threshold      ... 0
Time for construction of square roots      ...    0.002 sec
Total time needed                          ...    0.008 sec

-------------------
DFT GRID GENERATION
-------------------

General Integration Accuracy     IntAcc      ... 4.388
Radial Grid Type                 RadialGrid  ... OptM3 with GC (2021)
Angular Grid (max. ang.)         AngularGrid ... 4 (Lebedev-302)
Angular grid pruning method      GridPruning ... 4 (adaptive)
Weight generation scheme         WeightScheme... mBecke (2022)
Basis function cutoff            BFCut       ... 1.0000e-11
Integration weight cutoff        WCut        ... 1.0000e-14
Partially contracted basis set               ... off
Rotationally invariant grid construction     ... off
Angular grids for H and He will be reduced by one unit

Total number of grid points                  ...    72824
Total number of batches                      ...     1143
Average number of points per batch           ...       63
Average number of grid points per atom       ...     6069
Grids setup in   0.8 sec
Initializing property integral containers    ... done (  0.0 sec)

SHARK setup successfully completed in   1.1 seconds

Maximum memory used throughout the entire STARTUP-calculation: 19.8 MB


           ************************************************************
           *        Program running with 8 parallel MPI-processes     *
           *              working on a common directory               *
           ************************************************************
-------------------------------------------------------------------------------
                                 ORCA GUESS
                   Start orbitals & Density for SCF / CASSCF
-------------------------------------------------------------------------------

------------
SCF SETTINGS
------------
Hamiltonian:
 Density Functional     Method          .... DFT(GTOs)
 Exchange Functional    Exchange        .... B88
   X-Alpha parameter    XAlpha          ....  0.666667
   Becke's b parameter  XBeta           ....  0.004200
 Correlation Functional Correlation     .... P86
 LDA part of GGA corr.  LDAOpt          .... PW91-LDA
 Gradients option       PostSCFGGA      .... off
   NL short-range parameter             ....  4.400000
 RI-approximation to the Coulomb term is turned on
   Number of AuxJ basis functions       .... 588


General Settings:
 Integral files         IntName         .... random5_nn2.00
 Hartree-Fock type      HFTyp           .... RHF
 Total Charge           Charge          ....    0
 Multiplicity           Mult            ....    1
 Number of Electrons    NEL             ....   60
 Basis Dimension        Dim             ....  168
 Nuclear Repulsion      ENuc            ....    223.2353425134 Eh

Convergence Acceleration:
 AO-DIIS                CNVDIIS         .... on
   Start iteration      DIISMaxIt       ....     0
   Startup error        DIISStart       ....  0.200000
   # of expansion vecs  DIISMaxEq       ....     5
   Bias factor          DIISBfac        ....   1.050
   Max. coefficient     DIISMaxC        ....  10.000
 MO-DIIS                CNVKDIIS        .... off
 Trust-Rad. Augm. Hess. CNVTRAH         .... auto
   Auto Start mean grad. ratio tolernc. ....  1.125000
   Auto Start start iteration           ....    50
   Auto Start num. interpolation iter.  ....    10
   Max. Number of Micro iterations      ....    24
   Max. Number of Macro iterations      .... Maxiter - #DIIS iter
   Number of Davidson start vectors     ....     2
   Converg. threshold    (grad. norm)   ....   1.000e-05
   Grad. Scal. Fac. for Micro threshold ....   0.100
   Minimum threshold for Micro iter.    ....   1.000e-02
   NR start threshold (gradient norm)   ....   1.000e-04
   Initial trust radius                 ....   0.400
   Minimum AH scaling param. (alpha)    ....   1.000
   Maximum AH scaling param. (alpha)    .... 1000.000
   Quad. conv. algorithm                .... NR
   White noise on init. David. guess    .... on
   Maximum white noise                  ....   0.010
   Pseudo random numbers                .... off
   Inactive MOs                         .... canonical
   Orbital update algorithm             .... Taylor
   Preconditioner                       .... Diag
   Full preconditioner red. dimension   ....   250
 SOSCF                 CNVSOSCF           .... on
   Start iteration     SOSCFMaxIt         ....   150
   Startup grad/error  SOSCFStart         ....  0.001000
   Hessian update      SOSCFHessUp        .... L-BFGS
   Autom. constraints  SOSCFAutoConstrain .... off
 Level Shifting         CNVShift        .... on
   Level shift para.    LevelShift      ....    0.2500
   Turn off err/grad.   ShiftErr        ....    0.0000
 Zerner damping         CNVZerner       .... off
 Static damping         CNVDamp         .... on
   Fraction old density DampFac         ....    0.8500
   Max. Damping (<1)    DampMax         ....    0.9800
   Min. Damping (>=0)   DampMin         ....    0.0000
   Turn off err/grad.   DampErr         ....    0.0300

SCF Procedure:
 Maximum # iterations   MaxIter         ....   125
 SCF integral mode      SCFMode         .... Direct
   Integral package                     .... SHARK and LIBINT hybrid scheme
 Reset frequency        DirectResetFreq ....    20
 Integral Threshold     Thresh          ....  2.500e-11 Eh
 Primitive CutOff       TCut            ....  2.500e-12 Eh

Convergence Tolerance:
 Convergence Check Mode ConvCheckMode   .... Total+1el-Energy
 Convergence forced     ConvForced      .... 0
 Energy Change          TolE            ....  1.000e-08 Eh
 1-El. energy change                    ....  1.000e-05 Eh
 Orbital Gradient       TolG            ....  1.000e-05
 Orbital Rotation angle TolX            ....  1.000e-05
 DIIS Error             TolErr          ....  5.000e-07

------------------------------
INITIAL GUESS: MODEL POTENTIAL
------------------------------
Loading Hartree-Fock densities                     ... done
Calculating cut-offs                               ... done
Initializing the effective Hamiltonian             ... done
Setting up the integral package (SHARK)            ... done
Starting the Coulomb interaction                   ... done (   0.0 sec)
Making the grid                                    ... done (   0.1 sec)
Mapping shells                                     ... done
Starting the XC term evaluation                    ... done (   0.0 sec)
  promolecular density results
     # of electrons  =     60.000082165
     EX              =    -44.371991462
     EC              =     -1.709944855
     EX+EC           =    -46.081936316
Transforming the Hamiltonian                       ... done (   0.0 sec)
Diagonalizing the Hamiltonian                      ... done (   0.0 sec)
Back transforming the eigenvectors                 ... done (   0.0 sec)
Now organizing SCF variables                       ... done
                      ------------------
                      INITIAL GUESS DONE (   0.3 sec)
                      ------------------
             **** ENERGY FILE WAS UPDATED (random5_nn2.00.en.tmp) ****
Finished Guess after   0.7 sec
Maximum memory used throughout the entire GUESS-calculation: 9.3 MB


           ************************************************************
           *        Program running with 8 parallel MPI-processes     *
           *              working on a common directory               *
           ************************************************************

-------------------------------------------------------------------------------------------
                                      ORCA LEAN-SCF
                              memory conserving SCF solver
-------------------------------------------------------------------------------------------

----------------------------------------D-I-I-S--------------------------------------------
Iteration    Energy (Eh)           Delta-E    RMSDP     MaxDP     DIISErr   Damp  Time(sec)
-------------------------------------------------------------------------------------------
               ***  Starting incremental Fock matrix formation  ***
    1    -295.7572727041358007     0.00e+00  9.46e-03  1.36e-01  1.41e-01  0.850   0.3
Warning: op=0 Small HOMO/LUMO gap (  -0.091) - skipping pre-diagonalization
         Will do a full diagonalization
    2    -295.9487110277448778    -1.91e-01  7.66e-03  8.20e-02  5.16e-02  0.850   0.4
                               ***Turning on AO-DIIS***
    3    -295.9504052155172644    -1.69e-03  5.39e-03  3.49e-02  3.51e-02  0.850   0.4
    4    -295.9183321075038862     3.21e-02  4.30e-03  2.53e-02  6.04e-02  0.850   0.3
    5    -295.8968318354101825     2.15e-02  3.60e-03  2.37e-02  7.58e-02  0.850   0.3
    6    -295.8820351597282183     1.48e-02  3.07e-03  2.11e-02  8.12e-02  0.850   0.7
    7    -295.8707376384349459     1.13e-02  2.73e-03  1.94e-02  8.67e-02  0.850   0.3
    8    -295.8626176254528559     8.12e-03  2.85e-03  2.69e-02  8.74e-02  0.850   0.3
    9    -295.8672160798677737    -4.60e-03  3.34e-03  4.22e-02  8.12e-02  0.850   0.3
   10    -295.8959001121596089    -2.87e-02  3.63e-03  4.54e-02  7.50e-02  0.850   0.2
   11    -295.9422796331168115    -4.64e-02  3.41e-03  2.94e-02  5.98e-02  0.850   0.3
   12    -295.9831686785253737    -4.09e-02  3.05e-03  3.09e-02  4.19e-02  0.850   0.3
   13    -296.0144408177973787    -3.13e-02  2.74e-03  3.33e-02  3.41e-02  0.850   0.3
   14    -296.0387455499996463    -2.43e-02  2.39e-03  2.67e-02  3.55e-02  0.850   0.2
   15    -296.0565041079868820    -1.78e-02  1.99e-03  1.78e-02  3.25e-02  0.850   0.3
   16    -296.0681425061628147    -1.16e-02  1.65e-03  1.56e-02  2.55e-02  0.850   0.3
   17    -296.0758378769893966    -7.70e-03  9.42e-03  8.74e-02  1.75e-02  0.000   0.2
   18    -296.0703537091721387     5.48e-03  1.67e-03  9.34e-03  6.56e-02  0.000   0.3
   19    -296.0765738093268169    -6.22e-03  1.92e-04  1.61e-03  7.37e-02  0.850   0.3
   20    -296.0784537932758553    -1.88e-03  4.25e-04  3.42e-03  7.28e-02  0.850   0.2
               *** Restarting incremental Fock matrix formation ***
                             ****Resetting DIIS****
Warning: op=0 Small HOMO/LUMO gap (  -0.071) - skipping pre-diagonalization
         Will do a full diagonalization
   21    -296.0827419116824899    -4.29e-03  4.95e-03  4.06e-02  7.10e-02  0.850   0.3
   22    -296.1083051284961698    -2.56e-02  3.25e-03  2.65e-02  2.35e-02  0.850   0.3
   23    -296.0955760329265445     1.27e-02  1.56e-02  1.45e-01  2.35e-02  0.000   0.3
   24    -295.7767064360279505     3.19e-01  3.91e-03  2.14e-02  1.04e-01  0.000   0.2
   25    -295.9048785318242949    -1.28e-01  4.44e-04  3.93e-03  8.19e-02  0.850   0.3
   26    -295.9177199819001203    -1.28e-02  7.14e-04  5.25e-03  8.08e-02  0.850   0.2
   27    -295.9376492486838401    -1.99e-02  1.03e-03  6.47e-03  7.89e-02  0.850   0.2
   28    -295.9619085287335452    -2.43e-02  5.33e-03  7.41e-02  7.67e-02  0.850   0.2
   29    -296.0523514349809489    -9.04e-02  3.17e-03  2.87e-02  4.40e-02  0.850   0.3
   30    -296.0886740244298494    -3.63e-02  2.24e-03  1.38e-02  2.50e-02  0.850   0.3
   31    -296.1037423679642302    -1.51e-02  1.14e-02  7.50e-02  1.15e-02  0.000   0.2
   32    -296.0475538643879077     5.62e-02  1.82e-03  1.41e-02  6.44e-02  0.000   0.2
   33    -296.0699509568998451    -2.24e-02  1.87e-04  2.16e-03  4.87e-02  0.850   0.3
   34    -296.0719705521676701    -2.02e-03  3.02e-04  3.54e-03  4.79e-02  0.850   0.3
   35    -296.0749926182645027    -3.02e-03  3.63e-04  3.73e-03  4.72e-02  0.850   0.2
   36    -296.0784132737276764    -3.42e-03  2.01e-03  1.68e-02  4.65e-02  0.850   0.3
   37    -296.1023787917187633    -2.40e-02  1.67e-03  1.03e-02  3.20e-02  0.850   0.3
   38    -296.1157633919268051    -1.34e-02  1.32e-03  8.50e-03  1.76e-02  0.850   0.4
   39    -296.1215079921162783    -5.74e-03  6.77e-03  4.84e-02  8.00e-03  0.000   0.3
   40    -296.0933769975245582     2.81e-02  9.12e-04  6.75e-03  3.58e-02  0.000   0.2
               *** Restarting incremental Fock matrix formation ***
                             ****Resetting DIIS****
Warning: op=0 Small HOMO/LUMO gap (  -0.053) - skipping pre-diagonalization
         Will do a full diagonalization
   41    -296.1020581485491334    -8.68e-03  4.03e-03  3.52e-02  3.23e-02  0.850   0.4
   42    -296.1175095224438678    -1.55e-02  2.64e-03  1.76e-02  6.62e-03  0.850   0.6
   43    -296.1076372433462325     9.87e-03  1.26e-02  9.00e-02  2.45e-02  0.000   0.5
   44    -295.8762887986150076     2.31e-01  3.07e-03  2.80e-02  1.19e-01  0.000   0.3
   45    -295.9636107481576914    -8.73e-02  3.39e-04  2.54e-03  8.51e-02  0.850   0.3
   46    -295.9723853554814355    -8.77e-03  5.33e-04  4.06e-03  8.17e-02  0.850   0.3
   47    -295.9856939488816465    -1.33e-02  7.80e-04  6.28e-03  7.62e-02  0.850   0.2
   48    -296.0006603606782960    -1.50e-02  3.83e-03  3.43e-02  6.80e-02  0.850   0.3
   49    -296.0647225740441968    -6.41e-02  2.63e-03  1.73e-02  4.76e-02  0.850   0.3
   50    -296.0971634861744519    -3.24e-02  2.00e-03  1.29e-02  2.80e-02  0.850   0.4

       ******************************************************************************
       ***                                                                        ***
       ***                               Auto-TRAH                                ***
       ***                               ---------                                ***
       *** the maximum gradient error decreased on average only by a factor   1.0 ***
       *** during the last  10 iterations                                         ***
       ***                                                                        ***
       ***               Leaving SCF to start the TRAH-SCF procedure              ***
       ***                                                                        ***
       ******************************************************************************

 --------------------------------------------------------------------------------------------
   Iter.        energy            ||Error||_2        Shift      TRadius  Mac/Mic        Rej.
 --------------------------------------------------------------------------------------------
    0       -296.056137852790     7.253988e-01                     0.400 (TRAH MAcro)   No
WARNING: 47 diagonal Hessian elements are negative!
WARNING : negative HOMO - LUMO gap : -0.112265
WARNING : negative HOMO - LUMO gap : -0.112265
    0     dE    -6.908845e-02     1.299460e-01    -1.3332e-01      0.191 (TRAH MIcro)
    0     dE    -7.143430e-02     9.853340e-02    -1.3666e-01      0.213 (TRAH MIcro)
    0     dE    -7.416166e-02     7.965746e-02    -1.3841e-01      0.268 (TRAH MIcro)
    0     dE    -7.502810e-02     6.345277e-02    -1.3991e-01      0.269 (TRAH MIcro)
    0     dE    -7.577795e-02     4.990747e-02    -1.4110e-01      0.272 (TRAH MIcro)
    0     dE    -7.676446e-02     4.164591e-02    -1.4214e-01      0.283 (TRAH MIcro)
    0     dE    -7.801863e-02     6.750680e-02    -1.4366e-01      0.294 (TRAH MIcro)
    0     dE    -8.446461e-02     7.678585e-02    -1.5336e-01      0.400 (TRAH MIcro)
    0     dE    -8.483254e-02     6.733003e-02    -1.6253e-01      0.394 (TRAH MIcro)
    0     dE    -8.587122e-02     5.380443e-02    -1.7102e-01      0.400 (TRAH MIcro)
    0     dE    -8.957524e-02     1.163713e-01    -2.2567e-01      0.400 (TRAH MIcro)
    0     dE    -8.526733e-02     4.750312e-02    -3.0389e-01      0.331 (TRAH MIcro)
    0     dE    -9.323980e-02     5.493164e-02    -3.0748e-01      0.393 (TRAH MIcro)
    0     dE    -7.436346e-02     3.214387e-02    -4.9173e-01      0.215 (TRAH MIcro)
    0     dE    -7.431528e-02     1.367065e-02    -4.9346e-01      0.212 (TRAH MIcro)
    0     dE    -7.429593e-02     4.857162e-03    -4.9368e-01      0.212 (TRAH MIcro)
    1       -296.125169650157     6.875015e-02                     0.480 (TRAH MAcro)   No
WARNING : small    HOMO - LUMO gap : 0.001179
WARNING : small    HOMO - LUMO gap : 0.001179
    1     dE    -7.482551e-04     5.753389e-02    -1.4951e-03      0.031 (TRAH MIcro)
    1     dE    -1.051431e-03     4.950231e-02    -2.0966e-03      0.054 (TRAH MIcro)
    1     dE    -1.471800e-03     4.654713e-02    -2.9296e-03      0.069 (TRAH MIcro)
    1     dE    -1.973089e-03     3.601087e-02    -3.9107e-03      0.095 (TRAH MIcro)
    1     dE    -2.158275e-03     1.954853e-02    -4.2663e-03      0.108 (TRAH MIcro)
    1     dE    -2.211238e-03     9.428632e-03    -4.3675e-03      0.112 (TRAH MIcro)
    1     dE    -2.225171e-03     5.832770e-03    -4.3948e-03      0.112 (TRAH MIcro)
    2       -296.127402923454     7.425468e-03                     0.576 (TRAH MAcro)   No
WARNING : small    HOMO - LUMO gap : 0.002616
WARNING : small    HOMO - LUMO gap : 0.002616
    2     dE    -9.675372e-06     5.663999e-03    -1.9350e-05      0.007 (TRAH MIcro)
    2     dE    -1.769564e-05     6.671982e-03    -3.5385e-05      0.013 (TRAH MIcro)
    2     dE    -2.385908e-05     5.883498e-03    -4.7701e-05      0.019 (TRAH MIcro)
    2     dE    -3.023449e-05     4.519484e-03    -6.0426e-05      0.027 (TRAH MIcro)
    2     dE    -3.354990e-05     2.465169e-03    -6.7033e-05      0.032 (TRAH MIcro)
    2     dE    -3.418389e-05     1.575866e-03    -6.8296e-05      0.032 (TRAH MIcro)
    2     dE    -3.444072e-05     1.076423e-03    -6.8808e-05      0.033 (TRAH MIcro)
    2     dE    -3.461038e-05     5.400605e-04    -6.9145e-05      0.033 (TRAH MIcro)
    3       -296.127437508199     1.015178e-03                     0.691 (TRAH MAcro)   No
WARNING : small    HOMO - LUMO gap : 0.002355
WARNING : small    HOMO - LUMO gap : 0.002355
    3     dE    -1.399663e-07     6.421648e-04    -2.7993e-07      0.001 (TRAH MIcro)
    3     dE    -1.780151e-07     4.731802e-04    -3.5603e-07      0.001 (TRAH MIcro)
    3     dE    -2.019883e-07     3.498249e-04    -4.0398e-07      0.001 (TRAH MIcro)
    3     dE    -2.197363e-07     2.658216e-04    -4.3947e-07      0.001 (TRAH MIcro)
    3     dE    -2.317789e-07     1.810839e-04    -4.6356e-07      0.001 (TRAH MIcro)
    3     dE    -2.369033e-07     1.014394e-04    -4.7381e-07      0.002 (TRAH MIcro)
    4       -296.127437745427     1.010774e-04                     0.829 (TRAH MAcro)   No
WARNING : small    HOMO - LUMO gap : 0.002367
WARNING : small    HOMO - LUMO gap : 0.002367
    4     dE    -9.847819e-10     7.044108e-05    -1.9696e-09      0.000 (TRAH MIcro)
    4     dE    -1.774085e-09     4.796800e-05    -3.5482e-09      0.000 (TRAH MIcro)
    4     dE    -2.134089e-09     3.371741e-05    -4.2682e-09      0.000 (TRAH MIcro)
    4     dE    -2.275774e-09     2.477197e-05    -4.5515e-09      0.000 (TRAH MIcro)
    4     dE    -2.350606e-09     1.822584e-05    -4.7012e-09      0.000 (TRAH MIcro)
    4     dE    -2.397895e-09     1.423719e-05    -4.7958e-09      0.000 (TRAH MIcro)
    4     dE    -2.420852e-09     1.082137e-05    -4.8417e-09      0.000 (TRAH MIcro)
    4     dE    -2.439924e-09     5.823806e-06    -4.8798e-09      0.000 (TRAH MIcro)
    5       -296.127437747866     5.820174e-06                           (NR   MAcro)

               *****************************************************
               *                     SUCCESS                       *
               *           SCF CONVERGED AFTER 101 CYCLES          *
               *****************************************************

Warning: op=0 Small HOMO/LUMO gap (   0.002) - skipping pre-diagonalization
         Will do a full diagonalization
             **** ENERGY FILE WAS UPDATED (random5_nn2.00.en.tmp) ****

----------------
TOTAL SCF ENERGY
----------------

Total Energy       :       -296.12743774786645 Eh           -8058.03724 eV

Components:
Nuclear Repulsion  :        223.23534251336804 Eh            6074.54249 eV
Electronic Energy  :       -519.36278026123455 Eh          -14132.57974 eV
One Electron Energy:       -834.39565784959302 Eh          -22705.06015 eV
Two Electron Energy:        315.03287758835853 Eh            8572.48042 eV

Virial components:
Potential Energy   :       -587.76142682753289 Eh          -15993.80153 eV
Kinetic Energy     :        291.63398907966643 Eh            7935.76429 eV
Virial Ratio       :          2.01540783597406

DFT components:
N(Alpha)           :       29.999949677687 electrons
N(Beta)            :       29.999949677687 electrons
N(Total)           :       59.999899355373 electrons
E(X)               :      -44.521018435730 Eh       
E(C)               :       -1.743818144399 Eh       
E(XC)              :      -46.264836580129 Eh       

---------------
SCF CONVERGENCE
---------------

  Last Energy change         ...   -2.4390e-09  Tolerance :   1.0000e-08
  Last MAX-Density change    ...    7.1512e-02  Tolerance :   1.0000e-07
  Last RMS-Density change    ...    1.0380e-02  Tolerance :   5.0000e-09
  Last DIIS Error            ...    1.2854e-02  Tolerance :   5.0000e-07


----------------
ORBITAL ENERGIES
----------------

  NO   OCC          E(Eh)            E(eV) 
   0   2.0000      -6.691743      -182.0916 
   1   2.0000      -6.677120      -181.6937 
   2   2.0000      -6.673788      -181.6030 
   3   2.0000      -6.670941      -181.5255 
   4   2.0000      -6.665319      -181.3726 
   5   2.0000      -6.657078      -181.1483 
   6   2.0000      -6.654299      -181.0727 
   7   2.0000      -6.654081      -181.0667 
   8   2.0000      -6.653740      -181.0575 
   9   2.0000      -6.652584      -181.0260 
  10   2.0000      -6.643860      -180.7886 
  11   2.0000      -6.634582      -180.5362 
  12   2.0000      -0.442281       -12.0351 
  13   2.0000      -0.423817       -11.5326 
  14   2.0000      -0.412649       -11.2287 
  15   2.0000      -0.406608       -11.0644 
  16   2.0000      -0.387767       -10.5517 
  17   2.0000      -0.365558        -9.9473 
  18   2.0000      -0.343467        -9.3462 
  19   2.0000      -0.334569        -9.1041 
  20   2.0000      -0.319465        -8.6931 
  21   2.0000      -0.306826        -8.3492 
  22   2.0000      -0.285638        -7.7726 
  23   2.0000      -0.274917        -7.4809 
  24   2.0000      -0.218861        -5.9555 
  25   2.0000      -0.212260        -5.7759 
  26   2.0000      -0.206853        -5.6288 
  27   2.0000      -0.193281        -5.2594 
  28   2.0000      -0.190123        -5.1735 
  29   2.0000      -0.188255        -5.1227 
  30   0.0000      -0.088255        -2.4015 
  31   0.0000      -0.087987        -2.3942 
  32   0.0000      -0.084626        -2.3028 
  33   0.0000      -0.076262        -2.0752 
  34   0.0000      -0.069039        -1.8786 
  35   0.0000      -0.058811        -1.6003 
  36   0.0000      -0.053577        -1.4579 
  37   0.0000      -0.051505        -1.4015 
  38   0.0000      -0.040999        -1.1156 
  39   0.0000      -0.038229        -1.0403 
  40   0.0000      -0.035062        -0.9541 
*Only the first 10 virtual orbitals were printed.

                    ********************************
                    * MULLIKEN POPULATION ANALYSIS *
                    ********************************

-----------------------
MULLIKEN ATOMIC CHARGES
-----------------------
   0 B :    0.022559
   1 B :   -0.054180
   2 B :    0.062540
   3 B :    0.063877
   4 B :   -0.042853
   5 B :   -0.006821
   6 B :    0.120181
   7 B :   -0.098474
   8 B :   -0.030790
   9 B :   -0.113301
  10 B :    0.103235
  11 B :   -0.025974
Sum of atomic charges:   -0.0000000

--------------------------------
MULLIKEN REDUCED ORBITAL CHARGES
--------------------------------
  0 B s       :     3.816225  s :     3.816225
      pz      :     0.488223  p :     1.155143
      px      :     0.324803
      py      :     0.342117
      dz2     :     0.002554  d :     0.006073
      dxz     :     0.001421
      dyz     :     0.000812
      dx2y2   :     0.000781
      dxy     :     0.000504

  1 B s       :     3.841967  s :     3.841967
      pz      :     0.482637  p :     1.205518
      px      :     0.381721
      py      :     0.341160
      dz2     :     0.002123  d :     0.006695
      dxz     :     0.001783
      dyz     :     0.000808
      dx2y2   :     0.001086
      dxy     :     0.000896

  2 B s       :     3.886411  s :     3.886411
      pz      :     0.309849  p :     1.046055
      px      :     0.372795
      py      :     0.363411
      dz2     :     0.000491  d :     0.004994
      dxz     :     0.001389
      dyz     :     0.000901
      dx2y2   :     0.000936
      dxy     :     0.001278

  3 B s       :     3.836458  s :     3.836458
      pz      :     0.421246  p :     1.092899
      px      :     0.377755
      py      :     0.293898
      dz2     :     0.002396  d :     0.006766
      dxz     :     0.002447
      dyz     :     0.000831
      dx2y2   :     0.000636
      dxy     :     0.000457

  4 B s       :     3.767237  s :     3.767237
      pz      :     0.346820  p :     1.269414
      px      :     0.449699
      py      :     0.472894
      dz2     :     0.000648  d :     0.006202
      dxz     :     0.000931
      dyz     :     0.001124
      dx2y2   :     0.001814
      dxy     :     0.001686

  5 B s       :     3.793183  s :     3.793183
      pz      :     0.454504  p :     1.209050
      px      :     0.382747
      py      :     0.371799
      dz2     :     0.001238  d :     0.004589
      dxz     :     0.001478
      dyz     :     0.000811
      dx2y2   :     0.000497
      dxy     :     0.000565

  6 B s       :     3.941756  s :     3.941756
      pz      :     0.346104  p :     0.935448
      px      :     0.157221
      py      :     0.432123
      dz2     :     0.000285  d :     0.002616
      dxz     :     0.000350
      dyz     :     0.000720
      dx2y2   :     0.000784
      dxy     :     0.000477

  7 B s       :     3.722665  s :     3.722665
      pz      :     0.302700  p :     1.369291
      px      :     0.521866
      py      :     0.544726
      dz2     :     0.000982  d :     0.006517
      dxz     :     0.000542
      dyz     :     0.000682
      dx2y2   :     0.002967
      dxy     :     0.001344

  8 B s       :     3.701704  s :     3.701704
      pz      :     0.477455  p :     1.321308
      px      :     0.530968
      py      :     0.312885
      dz2     :     0.001022  d :     0.007778
      dxz     :     0.001179
      dyz     :     0.001848
      dx2y2   :     0.000865
      dxy     :     0.002864

  9 B s       :     3.634170  s :     3.634170
      pz      :     0.508060  p :     1.471338
      px      :     0.406803
      py      :     0.556475
      dz2     :     0.001243  d :     0.007792
      dxz     :     0.001595
      dyz     :     0.001473
      dx2y2   :     0.001054
      dxy     :     0.002427

 10 B s       :     3.957431  s :     3.957431
      pz      :     0.201162  p :     0.936114
      px      :     0.508497
      py      :     0.226456
      dz2     :     0.000681  d :     0.003220
      dxz     :     0.000362
      dyz     :     0.000150
      dx2y2   :     0.001323
      dxy     :     0.000704

 11 B s       :     3.856673  s :     3.856673
      pz      :     0.356242  p :     1.163327
      px      :     0.439966
      py      :     0.367120
      dz2     :     0.000895  d :     0.005974
      dxz     :     0.001967
      dyz     :     0.001370
      dx2y2   :     0.000552
      dxy     :     0.001190



                     *******************************
                     * LOEWDIN POPULATION ANALYSIS *
                     *******************************

----------------------
LOEWDIN ATOMIC CHARGES
----------------------
   0 B :    0.036170
   1 B :   -0.070064
   2 B :    0.050861
   3 B :    0.022272
   4 B :   -0.035879
   5 B :    0.023832
   6 B :    0.123254
   7 B :   -0.081974
   8 B :   -0.006252
   9 B :   -0.110002
  10 B :    0.103698
  11 B :   -0.055917

-------------------------------
LOEWDIN REDUCED ORBITAL CHARGES
-------------------------------
  0 B s       :     3.641348  s :     3.641348
      pz      :     0.581834  p :     1.311200
      px      :     0.359083
      py      :     0.370284
      dz2     :     0.005213  d :     0.011282
      dxz     :     0.003016
      dyz     :     0.001314
      dx2y2   :     0.001040
      dxy     :     0.000698

  1 B s       :     3.654576  s :     3.654576
      pz      :     0.573466  p :     1.404063
      px      :     0.418674
      py      :     0.411923
      dz2     :     0.004032  d :     0.011425
      dxz     :     0.003178
      dyz     :     0.001167
      dx2y2   :     0.001694
      dxy     :     0.001354

  2 B s       :     3.758977  s :     3.758977
      pz      :     0.349183  p :     1.182118
      px      :     0.423252
      py      :     0.409683
      dz2     :     0.000782  d :     0.008044
      dxz     :     0.002399
      dyz     :     0.001396
      dx2y2   :     0.001273
      dxy     :     0.002194

  3 B s       :     3.676634  s :     3.676634
      pz      :     0.532006  p :     1.288438
      px      :     0.420552
      py      :     0.335881
      dz2     :     0.004952  d :     0.012655
      dxz     :     0.004678
      dyz     :     0.001385
      dx2y2   :     0.000906
      dxy     :     0.000734

  4 B s       :     3.578434  s :     3.578434
      pz      :     0.381692  p :     1.445312
      px      :     0.484544
      py      :     0.579076
      dz2     :     0.001269  d :     0.012133
      dxz     :     0.001680
      dyz     :     0.002188
      dx2y2   :     0.004137
      dxy     :     0.002858

  5 B s       :     3.629826  s :     3.629826
      pz      :     0.522132  p :     1.337578
      px      :     0.419275
      py      :     0.396170
      dz2     :     0.002579  d :     0.008764
      dxz     :     0.003204
      dyz     :     0.001178
      dx2y2   :     0.000767
      dxy     :     0.001036

  6 B s       :     3.866573  s :     3.866573
      pz      :     0.363919  p :     1.006418
      px      :     0.172634
      py      :     0.469866
      dz2     :     0.000307  d :     0.003754
      dxz     :     0.000527
      dyz     :     0.001231
      dx2y2   :     0.000956
      dxy     :     0.000733

  7 B s       :     3.525208  s :     3.525208
      pz      :     0.318234  p :     1.544231
      px      :     0.584322
      py      :     0.641675
      dz2     :     0.001870  d :     0.012535
      dxz     :     0.000729
      dyz     :     0.001452
      dx2y2   :     0.006252
      dxy     :     0.002232

  8 B s       :     3.470866  s :     3.470866
      pz      :     0.511320  p :     1.516909
      px      :     0.599600
      py      :     0.405989
      dz2     :     0.001923  d :     0.018477
      dxz     :     0.002919
      dyz     :     0.004515
      dx2y2   :     0.001376
      dxy     :     0.007743

  9 B s       :     3.402161  s :     3.402161
      pz      :     0.569036  p :     1.689046
      px      :     0.470289
      py      :     0.649721
      dz2     :     0.002278  d :     0.018795
      dxz     :     0.003752
      dyz     :     0.003989
      dx2y2   :     0.001602
      dxy     :     0.007174

 10 B s       :     3.877494  s :     3.877494
      pz      :     0.208101  p :     1.014146
      px      :     0.568942
      py      :     0.237103
      dz2     :     0.000970  d :     0.004662
      dxz     :     0.000410
      dyz     :     0.000183
      dx2y2   :     0.002379
      dxy     :     0.000720

 11 B s       :     3.696291  s :     3.696291
      pz      :     0.421201  p :     1.349862
      px      :     0.511412
      py      :     0.417249
      dz2     :     0.001311  d :     0.009764
      dxz     :     0.003246
      dyz     :     0.002169
      dx2y2   :     0.000889
      dxy     :     0.002149



                      *****************************
                      * MAYER POPULATION ANALYSIS *
                      *****************************

  NA   - Mulliken gross atomic population
  ZA   - Total nuclear charge
  QA   - Mulliken gross atomic charge
  VA   - Mayer's total valence
  BVA  - Mayer's bonded valence
  FA   - Mayer's free valence

  ATOM       NA         ZA         QA         VA         BVA        FA
  0 B      4.9774     5.0000     0.0226     2.1206     2.1206    -0.0000
  1 B      5.0542     5.0000    -0.0542     2.1376     2.1376    -0.0000
  2 B      4.9375     5.0000     0.0625     1.8783     1.8783    -0.0000
  3 B      4.9361     5.0000     0.0639     2.0060     2.0060    -0.0000
  4 B      5.0429     5.0000    -0.0429     2.3047     2.3047    -0.0000
  5 B      5.0068     5.0000    -0.0068     2.0542     2.0542    -0.0000
  6 B      4.8798     5.0000     0.1202     1.6011     1.6011    -0.0000
  7 B      5.0985     5.0000    -0.0985     2.4762     2.4762    -0.0000
  8 B      5.0308     5.0000    -0.0308     2.4101     2.4101     0.0000
  9 B      5.1133     5.0000    -0.1133     2.6555     2.6555    -0.0000
 10 B      4.8968     5.0000     0.1032     1.4935     1.4935    -0.0000
 11 B      5.0260     5.0000    -0.0260     2.0503     2.0503     0.0000

  Mayer bond orders larger than 0.100000
B(  0-B ,  1-B ) :   0.2653 B(  0-B ,  2-B ) :   0.1545 B(  0-B ,  3-B ) :   0.6045 
B(  0-B ,  4-B ) :   0.1271 B(  0-B ,  5-B ) :   0.1905 B(  0-B ,  6-B ) :   0.1053 
B(  0-B ,  7-B ) :   0.1514 B(  0-B ,  8-B ) :   0.3013 B(  0-B ,  9-B ) :   0.1206 
B(  1-B ,  2-B ) :   0.4210 B(  1-B ,  3-B ) :   0.1132 B(  1-B ,  4-B ) :   0.1936 
B(  1-B ,  5-B ) :   0.5443 B(  1-B ,  7-B ) :   0.2423 B(  1-B , 11-B ) :   0.1312 
B(  2-B ,  3-B ) :   0.1339 B(  2-B ,  4-B ) :   0.5102 B(  2-B ,  5-B ) :   0.1788 
B(  2-B ,  7-B ) :   0.1937 B(  2-B , 10-B ) :   0.1185 B(  3-B ,  4-B ) :   0.1284 
B(  3-B ,  7-B ) :   0.3738 B(  3-B ,  8-B ) :   0.2669 B(  4-B ,  6-B ) :   0.1101 
B(  4-B ,  7-B ) :   0.7161 B(  4-B , 10-B ) :   0.2476 B(  5-B ,  6-B ) :   0.1091 
B(  5-B ,  9-B ) :   0.1395 B(  5-B , 11-B ) :   0.5118 B(  6-B ,  8-B ) :   0.1991 
B(  6-B ,  9-B ) :   0.3928 B(  6-B , 11-B ) :   0.3504 B(  7-B ,  8-B ) :   0.1052 
B(  7-B , 10-B ) :   0.4159 B(  8-B ,  9-B ) :   0.9603 B(  8-B , 10-B ) :   0.1578 
B(  8-B , 11-B ) :   0.1897 B(  9-B , 10-B ) :   0.2028 B(  9-B , 11-B ) :   0.5106 


-------
TIMINGS
-------

Total SCF time: 0 days 0 hours 0 min 28 sec 

Total time                  ....      28.519 sec
Sum of individual times     ....      26.800 sec  ( 94.0%)

SCF preparation             ....       0.723 sec  (  2.5%)
Fock matrix formation       ....      22.466 sec  ( 78.8%)
  Startup                   ....       0.032 sec  (  0.1% of F)
  Split-RI-J                ....       9.374 sec  ( 41.7% of F)
  XC integration            ....      12.072 sec  ( 53.7% of F)
    XC Preparation          ....       0.000 sec  (  0.0% of XC)
    Basis function eval.    ....       2.294 sec  ( 19.0% of XC)
    Density eval.           ....       1.399 sec  ( 11.6% of XC)
    XC-Functional eval.     ....       0.335 sec  (  2.8% of XC)
    XC-Potential eval.      ....       1.729 sec  ( 14.3% of XC)
Diagonalization             ....       0.000 sec  (  0.0%)
Density matrix formation    ....       0.933 sec  (  3.3%)
Total Energy calculation    ....       0.211 sec  (  0.7%)
Population analysis         ....       0.032 sec  (  0.1%)
Orbital Transformation      ....       0.750 sec  (  2.6%)
Orbital Orthonormalization  ....       0.000 sec  (  0.0%)
DIIS solution               ....       1.680 sec  (  5.9%)
SOSCF solution              ....       0.000 sec  (  0.0%)
NR solution                 ....       0.005 sec  (  0.0%)
Finished LeanSCF after  28.5 sec

Maximum memory used throughout the entire LEANSCF-calculation: 10.7 MB


-------------------------------------------------------------------------------
                          DFT DISPERSION CORRECTION                            
                                                                               
                              DFTD3 V3.1  Rev 1                                
                          USING Becke-Johnson damping                          
-------------------------------------------------------------------------------
The BP86 functional is recognized
Active option DFTDOPT                   ...         4   

molecular C6(AA) [au] = 14598.595350 


            DFT-D V3
 parameters
 s6 scaling factor         :     1.0000 
 a1 scaling factor         :     0.3946 
 s8 scaling factor         :     3.2822 
 a2 scaling factor         :     4.8516 
 ad hoc parameters k1-k3   :    16.0000     1.3333    -4.0000 

 Edisp/kcal,au: -39.229386033436  -0.062515999312 
 E6   /kcal   : -11.669094180 
 E8   /kcal   : -27.560291854 
 % E8         :  70.254201354 

-------------------------   ----------------
Dispersion correction           -0.062515999
-------------------------   ----------------


-------------------------   --------------------
FINAL SINGLE POINT ENERGY      -296.189953747178
-------------------------   --------------------



           ************************************************************
           *        Program running with 8 parallel MPI-processes     *
           *              working on a common directory               *
           ************************************************************
------------------------------------------------------------------------------
                         ORCA SCF GRADIENT CALCULATION
------------------------------------------------------------------------------

Nuc. rep. gradient        (SHARK) ... done (  0.0 sec)
HCore & Overlap gradient  (SHARK) ... done (  0.1 sec)
Split-RIJ-J gradient      (SHARK) ... done (  0.3 sec)
XC gradient                       ... done (  0.8 sec)
Dispersion correction             ... done (  0.1 sec)

-------------------
DISPERSION GRADIENT
-------------------

   1   B   :    0.001287054    0.001550110   -0.000902086
   2   B   :    0.001640808   -0.000759190    0.000440507
   3   B   :    0.000655174   -0.001588918   -0.000172330
   4   B   :    0.000987282    0.001049618   -0.000384214
   5   B   :   -0.000064980   -0.000675141   -0.001517079
   6   B   :    0.001547174   -0.000398325    0.001650286
   7   B   :   -0.001622753   -0.000770613    0.001703357
   8   B   :   -0.000679544   -0.001277849   -0.002088184
   9   B   :   -0.003827095   -0.002031737    0.002628580
  10   B   :    0.001827176    0.005133694   -0.001372657
  11   B   :   -0.001404751   -0.000202411   -0.001412351
  12   B   :   -0.000345544   -0.000029238    0.001426171

Difference to translation invariance:
           :   -0.0000000000    0.0000000000    0.0000000000

Difference to rotation invariance:
           :   -0.0000000000    0.0000000000   -0.0000000000

Norm of the Dispersion gradient    ...    0.0098787401
RMS gradient                       ...    0.0016464567
MAX gradient                       ...    0.0051336939

------------------
CARTESIAN GRADIENT
------------------

   1   B   :    0.031166186    0.009932037    0.032581842
   2   B   :    0.032849755   -0.000368792   -0.029417191
   3   B   :    0.011986382   -0.039623522    0.024409346
   4   B   :    0.000491857    0.024486596   -0.045202546
   5   B   :   -0.028217910   -0.037249680   -0.014840313
   6   B   :    0.016158980   -0.009006738    0.030185674
   7   B   :   -0.016808514   -0.026991690    0.001253176
   8   B   :    0.013573245    0.022673111   -0.027701863
   9   B   :    0.007625464    0.051074872   -0.011703981
  10   B   :   -0.043981174   -0.007804186    0.003072769
  11   B   :   -0.026913499    0.000611122   -0.008843359
  12   B   :    0.002069229    0.012266873    0.046206447

Difference to translation invariance:
           :    0.0000000000    0.0000000000   -0.0000000000

Difference to rotation invariance:
           :   -0.0000530609    0.0000561279   -0.0001232136

Norm of the Cartesian gradient     ...    0.1518740751
RMS gradient                       ...    0.0253123459
MAX gradient                       ...    0.0510748716

-------
TIMINGS
-------

Total SCF gradient time     ....        1.259 sec

Densities                   ....       0.001 sec  (  0.1%)
One electron gradient       ....       0.055 sec  (  4.4%)
RI-J Coulomb gradient       ....       0.331 sec  ( 26.3%)
XC gradient                 ....       0.787 sec  ( 62.5%)

Maximum memory used throughout the entire SCFGRAD-calculation: 29.3 MB
------------------------------------------------------------------------------
                         ORCA GEOMETRY RELAXATION STEP
------------------------------------------------------------------------------

Reading the OPT-File                    .... done
[...]
      px      :     0.640957
      py      :     0.526412
      dz2     :     0.013561  d :     0.078940
      dxz     :     0.014824
      dyz     :     0.017548
      dx2y2   :     0.016602
      dxy     :     0.016406

  8 B s       :     3.334495  s :     3.334495
      pz      :     0.489507  p :     1.909149
      px      :     0.874346
      py      :     0.545295
      dz2     :     0.007587  d :     0.054623
      dxz     :     0.006511
      dyz     :     0.011913
      dx2y2   :     0.013937
      dxy     :     0.014674

  9 B s       :     2.769077  s :     2.769077
      pz      :     0.654555  p :     1.972853
      px      :     0.649316
      py      :     0.668982
      dz2     :     0.005749  d :     0.052628
      dxz     :     0.011429
      dyz     :     0.007924
      dx2y2   :     0.012886
      dxy     :     0.014639

 10 B s       :     3.298364  s :     3.298364
      pz      :     0.421422  p :     1.792014
      px      :     0.554668
      py      :     0.815923
      dz2     :     0.005648  d :     0.045520
      dxz     :     0.009853
      dyz     :     0.004779
      dx2y2   :     0.012833
      dxy     :     0.012408

 11 B s       :     3.426524  s :     3.426524
      pz      :     0.502493  p :     1.863950
      px      :     0.815262
      py      :     0.546195
      dz2     :     0.013376  d :     0.056888
      dxz     :     0.015464
      dyz     :     0.011265
      dx2y2   :     0.008030
      dxy     :     0.008752



                     *******************************
                     * LOEWDIN POPULATION ANALYSIS *
                     *******************************

----------------------
LOEWDIN ATOMIC CHARGES
----------------------
   0 B :   -0.000431
   1 B :   -0.000987
   2 B :   -0.092196
   3 B :   -0.056800
   4 B :    0.026406
   5 B :    0.005178
   6 B :   -0.004662
   7 B :   -0.015364
   8 B :    0.035665
   9 B :   -0.136283
  10 B :    0.101136
  11 B :    0.138337

-------------------------------
LOEWDIN REDUCED ORBITAL CHARGES
-------------------------------
  0 B s       :     2.759569  s :     2.759569
      pz      :     0.548748  p :     2.123853
      px      :     0.829927
      py      :     0.745178
      dz2     :     0.013006  d :     0.117008
      dxz     :     0.020569
      dyz     :     0.016751
      dx2y2   :     0.035015
      dxy     :     0.031667

  1 B s       :     2.907822  s :     2.907822
      pz      :     0.480562  p :     2.000922
      px      :     0.601452
      py      :     0.918907
      dz2     :     0.008905  d :     0.092243
      dxz     :     0.021097
      dyz     :     0.007108
      dx2y2   :     0.023530
      dxy     :     0.031603

  2 B s       :     2.736037  s :     2.736037
      pz      :     0.659087  p :     2.235144
      px      :     0.945792
      py      :     0.630264
      dz2     :     0.012408  d :     0.121015
      dxz     :     0.012185
      dyz     :     0.017121
      dx2y2   :     0.042902
      dxy     :     0.036399

  3 B s       :     2.716351  s :     2.716351
      pz      :     0.597747  p :     2.210243
      px      :     0.855013
      py      :     0.757483
      dz2     :     0.018075  d :     0.130206
      dxz     :     0.018213
      dyz     :     0.016311
      dx2y2   :     0.030244
      dxy     :     0.047363

  4 B s       :     2.728742  s :     2.728742
      pz      :     0.511688  p :     2.121874
      px      :     0.940461
      py      :     0.669725
      dz2     :     0.013253  d :     0.122978
      dxz     :     0.020104
      dyz     :     0.015740
      dx2y2   :     0.043010
      dxy     :     0.030871

  5 B s       :     2.646607  s :     2.646607
      pz      :     0.734171  p :     2.171190
      px      :     0.740666
      py      :     0.696353
      dz2     :     0.025092  d :     0.177025
      dxz     :     0.047631
      dyz     :     0.042287
      dx2y2   :     0.031756
      dxy     :     0.030260

  6 B s       :     2.768498  s :     2.768498
      pz      :     0.463270  p :     2.128250
      px      :     0.891744
      py      :     0.773237
      dz2     :     0.012854  d :     0.107914
      dxz     :     0.010597
      dyz     :     0.012114
      dx2y2   :     0.036900
      dxy     :     0.035448

  7 B s       :     2.598347  s :     2.598347
      pz      :     0.665491  p :     2.215442
      px      :     0.751978
      py      :     0.797973
      dz2     :     0.035707  d :     0.201576
      dxz     :     0.032548
      dyz     :     0.034821
      dx2y2   :     0.050141
      dxy     :     0.048359

  8 B s       :     2.758119  s :     2.758119
      pz      :     0.538274  p :     2.076772
      px      :     0.945587
      py      :     0.592911
      dz2     :     0.019170  d :     0.129445
      dxz     :     0.018438
      dyz     :     0.026681
      dx2y2   :     0.032732
      dxy     :     0.032423

  9 B s       :     2.719231  s :     2.719231
      pz      :     0.722456  p :     2.286612
      px      :     0.774827
      py      :     0.789329
      dz2     :     0.014599  d :     0.130440
      dxz     :     0.030070
      dyz     :     0.021816
      dx2y2   :     0.029140
      dxy     :     0.034815

 10 B s       :     2.807276  s :     2.807276
      pz      :     0.458087  p :     1.983527
      px      :     0.599992
      py      :     0.925448
      dz2     :     0.014242  d :     0.108061
      dxz     :     0.019870
      dyz     :     0.015046
      dx2y2   :     0.030165
      dxy     :     0.028738

 11 B s       :     2.814781  s :     2.814781
      pz      :     0.592355  p :     1.921070
      px      :     0.767613
      py      :     0.561102
      dz2     :     0.027788  d :     0.125811
      dxz     :     0.030907
      dyz     :     0.024181
      dx2y2   :     0.019757
      dxy     :     0.023178



                      *****************************
                      * MAYER POPULATION ANALYSIS *
                      *****************************

  NA   - Mulliken gross atomic population
  ZA   - Total nuclear charge
  QA   - Mulliken gross atomic charge
  VA   - Mayer's total valence
  BVA  - Mayer's bonded valence
  FA   - Mayer's free valence

  ATOM       NA         ZA         QA         VA         BVA        FA
  0 B      4.9346     5.0000     0.0654     3.1331     3.1331    -0.0000
  1 B      5.4064     5.0000    -0.4064     3.0008     3.0008    -0.0000
  2 B      4.9607     5.0000     0.0393     3.0604     3.0604    -0.0000
  3 B      4.9524     5.0000     0.0476     3.3928     3.3928    -0.0000
  4 B      4.8858     5.0000     0.1142     3.4498     3.4498    -0.0000
  5 B      4.4268     5.0000     0.5732     3.2707     3.2707    -0.0000
  6 B      5.3571     5.0000    -0.3571     3.2445     3.2445    -0.0000
  7 B      4.5001     5.0000     0.4999     2.7880     2.7880    -0.0000
  8 B      5.2983     5.0000    -0.2983     3.4898     3.4898    -0.0000
  9 B      4.7946     5.0000     0.2054     3.6560     3.6560    -0.0000
 10 B      5.1359     5.0000    -0.1359     3.5000     3.5000     0.0000
 11 B      5.3474     5.0000    -0.3474     3.3283     3.3283    -0.0000

  Mayer bond orders larger than 0.100000
B(  0-B ,  1-B ) :   1.2614 B(  0-B ,  2-B ) :   0.4746 B(  0-B ,  3-B ) :   0.8669 
B(  0-B ,  5-B ) :   0.2958 B(  1-B ,  2-B ) :   1.3152 B(  1-B ,  5-B ) :   0.2103 
B(  2-B ,  4-B ) :   0.8308 B(  2-B ,  5-B ) :   0.3682 B(  3-B ,  5-B ) :   0.3143 
B(  3-B ,  7-B ) :   0.5295 B(  3-B ,  8-B ) :   1.1516 B(  3-B , 11-B ) :   0.3301 
B(  4-B ,  5-B ) :   0.3656 B(  4-B ,  6-B ) :   1.2798 B(  4-B ,  7-B ) :   0.4123 
B(  4-B , 10-B ) :   0.1078 B(  4-B , 11-B ) :   0.1648 B(  5-B ,  7-B ) :   0.3185 
B(  5-B , 11-B ) :   1.1309 B(  6-B ,  7-B ) :   0.4066 B(  6-B , 10-B ) :   1.2171 
B(  6-B , 11-B ) :   0.1337 B(  7-B ,  8-B ) :   0.3647 B(  7-B ,  9-B ) :   0.2394 
B(  7-B , 10-B ) :   0.2663 B(  7-B , 11-B ) :   0.1135 B(  8-B ,  9-B ) :   1.1374 
B(  8-B , 10-B ) :   0.1961 B(  8-B , 11-B ) :   0.4031 B(  9-B , 10-B ) :   1.2522 
B(  9-B , 11-B ) :   0.7226 B( 10-B , 11-B ) :   0.2655 

-------
TIMINGS
-------

Total SCF time: 0 days 0 hours 0 min 3 sec 

Total time                  ....       3.972 sec
Sum of individual times     ....       3.511 sec  ( 88.4%)

SCF preparation             ....       0.527 sec  ( 13.3%)
Fock matrix formation       ....       2.484 sec  ( 62.6%)
  Startup                   ....       0.008 sec  (  0.3% of F)
  Split-RI-J                ....       0.874 sec  ( 35.2% of F)
  XC integration            ....       1.839 sec  ( 74.0% of F)
    XC Preparation          ....       0.000 sec  (  0.0% of XC)
    Basis function eval.    ....       0.497 sec  ( 27.0% of XC)
    Density eval.           ....       0.351 sec  ( 19.1% of XC)
    XC-Functional eval.     ....       0.052 sec  (  2.8% of XC)
    XC-Potential eval.      ....       0.381 sec  ( 20.7% of XC)
Diagonalization             ....       0.000 sec  (  0.0%)
Density matrix formation    ....       0.043 sec  (  1.1%)
Total Energy calculation    ....       0.021 sec  (  0.5%)
Population analysis         ....       0.249 sec  (  6.3%)
Orbital Transformation      ....       0.017 sec  (  0.4%)
Orbital Orthonormalization  ....       0.000 sec  (  0.0%)
DIIS solution               ....       0.018 sec  (  0.5%)
SOSCF solution              ....       0.154 sec  (  3.9%)
Finished LeanSCF after   4.2 sec

Maximum memory used throughout the entire LEANSCF-calculation: 13.1 MB


-------------------------------------------------------------------------------
                          DFT DISPERSION CORRECTION                            
                                                                               
                              DFTD3 V3.1  Rev 1                                
                          USING Becke-Johnson damping                          
-------------------------------------------------------------------------------
The BP86 functional is recognized
Active option DFTDOPT                   ...         4   

molecular C6(AA) [au] = 4571.436090 


            DFT-D V3
 parameters
 s6 scaling factor         :     1.0000 
 a1 scaling factor         :     0.3946 
 s8 scaling factor         :     3.2822 
 a2 scaling factor         :     4.8516 
 ad hoc parameters k1-k3   :    16.0000     1.3333    -4.0000 

 Edisp/kcal,au: -22.725701202358  -0.036215706244 
 E6   /kcal   :  -6.529897455 
 E8   /kcal   : -16.195803747 
 % E8         :  71.266464356 

-------------------------   ----------------
Dispersion correction           -0.036215706
-------------------------   ----------------


-------------------------   --------------------
FINAL SINGLE POINT ENERGY      -297.662756355255
-------------------------   --------------------

                                *** OPTIMIZATION RUN DONE ***



           ************************************************************
           *        Program running with 8 parallel MPI-processes     *
           *              working on a common directory               *
           ************************************************************

------------------------------------------------------------------------------
                              ORCA PROPERTY CALCULATIONS
------------------------------------------------------------------------------

GBWName                                 ... random5_nn2.00.gbw
Number of atoms                         ...     12
Number of basis functions               ...    168
Max core memory                         ...   2500 MB

Electric properties:
Dipole moment                           ... YES
Quadrupole moment                       ...  NO
Static polarizability (Dipole/Dipole)   ...  NO
Static polarizability (Dipole/Quad.)    ...  NO
Static polarizability (Quad./Quad.)     ...  NO
Static polarizability (Velocity)        ...  NO
Static hyperpolarizability              ...  NO

Atomic electric properties:
Dipole moment                           ...  NO
Quadrupole moment                       ...  NO
Static polarizability                   ...  NO

Choice of electric origin               ... Center of mass
Position of electric origin             ...     0.000000    -0.000000     0.000000

General magnetic properties:
Magnetizability                         ...  NO

EPR properties:
g-Tensor (aka g-matrix)                 ...  NO
Zero-Field splitting spin-orbit         ...  NO
Zero-field splitting spin-spin          ...  NO
Hyperfine couplings                     ...  NO (   0 nuclei)
Quadrupole couplings                    ...  NO (   0 nuclei)
Contact density                         ...  NO (   0 nuclei)

NMR properties:
Chemical shifts                         ...  NO (   0 nuclei)
Spin-rotation constants                 ...  NO (   0 nuclei)
Spin-spin couplings                     ...  NO (   0 nuclei,    0 pairs)

Choice of magnetic origin               ... GIAO
Position of magnetic origin             ...     0.000000     0.000000     0.000000

Properties with geometric perturbations:
SCF Hessian                             ...  NO
IR spectrum                             ...  NO
VCD spectrum                            ...  NO
X-ray spectroscopy properties:
SCF XES/XAS/RIXS spectra                ...  NO

SCF SOC stabilization energy            ...  NO
Diagonal Born-Oppenheimer correction    ...  NO

-------------
DIPOLE MOMENT
-------------

Method             : SCF
Type of density    : Electron Density
Multiplicity       :   1
Irrep              :   0
Energy             :  -297.6265406490102805 Eh
Basis              : AO
                                X                 Y                 Z
Electronic contribution:     -0.647143943       0.183393144      -0.337996029
Nuclear contribution   :      0.000000000      -0.000000000       0.000000000
                        -----------------------------------------
Total Dipole Moment    :     -0.647143943       0.183393144      -0.337996029
                        -----------------------------------------
Magnitude (a.u.)       :      0.752774630
Magnitude (Debye)      :      1.913401050



--------------------
Rotational spectrum 
--------------------
 
Rotational constants in cm-1:             0.093504             0.044135             0.034688 
Rotational constants in MHz :          2803.170186          1323.132424          1039.929901 

Dipole components along the rotational axes: 
x,y,z [a.u.] :    -0.669431    -0.060285    -0.338966 
x,y,z [Debye]:    -1.701558    -0.153231    -0.861583 

 

Dipole moment calculation done in   0.1 sec 

Maximum memory used throughout the entire PROP-calculation: 10.5 MB

--------------------------------
SUGGESTED CITATIONS FOR THIS RUN
--------------------------------

Below you find a list of papers that are relevant to this ORCA run
We neither can nor want to force you to cite these papers, but we appreciate if you do
You receive ORCA, which is the product of decades of hard work by many enthusiastic individuals, for free
The only thing we kindly ask in return is that you cite our papers,
We deeply appreciate it, if you show your appreciation for ORCA by not just citing the generic ORCA reference.

Please note that relegating all ORCA citations to the supporting information does *not* help us.
SI sections are not indexed - citations you put there will not count into any citation statistics
But we need these citations in order to attract the funding resources that allow us to do what we are doing

Therefore, if you are a happy ORCA user, please consider citing a few of the papers listed below in the main body of your paper

In addition to the list printed below, the program has created the file random5_nn2.00.bibtex that contains the list in bibtex format
You can import this file easily into all common literature databanks and citation aid programs

It goes without saying that in many instances, there are alternative algorithms to achieve similar
results as the ones you have gotten from ORCA. It is, of course, also the case that in some instances
ORCA just re-implements algorithms worked out by others. We are fully aware of that and we are also
fully appreciative of our colleagues work. Hence this citation list should not be read as indicating
that the listed papers, which are focused on our own work, are the only ones worth citing. It simply
meant to make it easier for users to cite ORCA specific papers. It is not a substitute for doing your
own literature research and citing the relevant literature in a scientifically appropriate manner.

List of essential papers. We consider these as the minimum necessary citations

  1. Neese, F.
     Software update: the ORCA program system, version 6.0
     WIRES Comput. Molec. Sci. 2025 15(1), e70019
     doi.org/10.1002/wcms.70019

List of papers to cite with high priority. The work reported in these papers was absolutely
necessary for this run to complete.
Our perspective: the developers of density functionals and basis sets usually get cited in chemistry papers
Good! But without the algorithms to do something with them, the functionals or basis sets would not do anything.
Hence, in our opinion, the algorithm design and method developments papers are equally worthy of getting cited

  1. Neese, F.
     An improvement of the resolution of the identity approximation for the formation of the Coulomb matrix
     J. Comp. Chem. 2003 24(14), 1740-1747
     doi.org/10.1002/jcc.10318
  2. Grimme, S.; Antony, J.; Ehrlich, S.; Krieg, H.
     A consistent and accurate ab initio parametrization of density functional dispersion correction (DFT-D) for the 94 elements H-Pu
     J. Chem. Phys. 2010 132 , 154104
     doi.org/10.1063/1.3382344
  3. Grimme, S.; Ehrlich, S.; Goerigk, L.
     Effect of the damping function in dispersion corrected density functional theory
     J. Comput. Chem. 2011 32(7), 1456-1465
     doi.org/10.1002/jcc.21759
  4. Helmich-Paris, B.
     A trust-region augmented Hessian implementation for restricted and unrestricted Hartree–Fock and Kohn–Sham methods
     J. Chem. Phys. 2021 154 , 164104
     doi.org/10.1063/5.0040798
  5. Neese, F.
     The SHARK Integral Generation and Digestion System
     J. Comp. Chem. 2022 44(3), 381
     doi.org/10.1002/jcc.26942

List of suggested additional citations. These are papers that are important in the 'surrounding' of 
of this run, or papers that preceded the highly important papers. If you like your results we are grateful for a citation.

  1. Neese, F.
     The ORCA program system
     WIRES Comput. Molec. Sci. 2012 2(1), 73-78
     doi.org/10.1002/wcms.81
  2. Neese, F.
     Software update: the ORCA program system, version 4.0
     WIRES Comput. Molec. Sci. 2018 8(1), 1-6
     doi.org/10.1002/wcms.1327
  3. Neese, F.; Wennmohs, F.; Becker, U.; Riplinger, C.
     The ORCA quantum chemistry program package
     J. Chem. Phys. 2020 152(22), 224108
     doi.org/10.1063/5.0004608
  4. Neese, F.
     Software update: The ORCA program system—Version 5.0
     WIRES Comput. Molec. Sci. 2022 12(1), e1606
     doi.org/10.1002/wcms.1606

List of optional additional citations

  1. Neese, F.
     Approximate second-order SCF convergence for spin unrestricted wavefunctions
     Chem. Phys. Lett. 2000 325(1-3), 93-98
     doi.org/10.1016/s0009-2614(00)00662-x

Timings for individual modules:

Sum of individual times          ...      914.184 sec (=  15.236 min)
Startup calculation              ...      111.403 sec (=   1.857 min)  12.2 %
SCF iterations                   ...      641.838 sec (=  10.697 min)  70.2 %
Property calculations            ...        0.735 sec (=   0.012 min)   0.1 %
SCF Gradient evaluation          ...      159.219 sec (=   2.654 min)  17.4 %
Geometry relaxation              ...        0.989 sec (=   0.016 min)   0.1 %
                             ****ORCA TERMINATED NORMALLY****
TOTAL RUN TIME: 0 days 0 hours 16 minutes 9 seconds 288 msec
