
                                 *****************
                                 * O   R   C   A *
                                 *****************

                                            #,                                       
                                            ###                                      
                                            ####                                     
                                            #####                                    
                                            ######                                   
                                           ########,                                 
                                     ,,################,,,,,                         
                               ,,#################################,,                 
                          ,,##########################################,,             
                       ,#########################################, ''#####,          
                    ,#############################################,,   '####,        
                  ,##################################################,,,,####,       
                ,###########''''           ''''###############################       
              ,#####''   ,,,,##########,,,,          '''####'''          '####       
            ,##' ,,,,###########################,,,                        '##       
           ' ,,###''''                  '''############,,,                           
         ,,##''                                '''############,,,,        ,,,,,,###''
      ,#''                                            '''#######################'''  
     '                                                          ''''####''''         
             ,#######,   #######,   ,#######,      ##                                
            ,#'     '#,  ##    ##  ,#'     '#,    #''#        ,####,    ,#,          
            ##       ##  ##   ,#'  ##            #'  '#       #'       ,# #          
            ##       ##  #######   ##           ,######,      #####,      #          
            '#,     ,#'  ##    ##  '#,     ,#' ,#      #,     #,   #      #          
             '#######'   ##     ##  '#######'  #'      '#     '####' #    #          



                #########################################################
                #                        -***-                          #
                #          Department of theory and spectroscopy        #
                #                                                       #
                #                      Frank Neese                      #
                #                                                       #
                #     Directorship, Architecture, Infrastructure        #
                #                    SHARK, DRIVERS                     #
                #        Core code/Algorithms in most modules           #
                #                                                       #
                #        Max Planck Institute fuer Kohlenforschung      #
                #                Kaiser Wilhelm Platz 1                 #
                #                 D-45470 Muelheim/Ruhr                 #
                #                      Germany                          #
                #                                                       #
                #                  All rights reserved                  #
                #                        -***-                          #
                #########################################################


                         Program Version 6.1.1  -  RELEASE   -
                                (GIT: $487d211c$)
                          ($2025-11-21 10:33:24 +0100$)
                                                                         
                                  - NO-DMRG VERSION -                    
                                                                         


 With contributions from (in alphabetic order):
[Max-Planck-Institut fuer Kohlenforschung]                               
  Daniel Aravena         : Magnetic Suceptibility                        
  Michael Atanasov       : Ab Initio Ligand Field Theory (pilot matlab implementation)
  Alexander A. Auer      : GIAO ZORA, VPT2 properties, NMR spectrum      
  Ute Becker             : All parallelization in ORCA, NUMFREQ, NUMCALC 
  Giovanni Bistoni       : ED, misc. LED, open-shell LED, HFLD           
  Dmytro Bykov           : pre 5.0 version of the SCF Hessian            
  Marcos Casanova-Páez   : Triplet and SCS-CIS(D). UHF-(DLPNO)-IP/EA/STEOM-CCSD. UHF-CVS-IP/STEOM-CCSD   
  Vijay G. Chilkuri      : MRCI spin determinant printing, contributions to CSF-ICE 
  Pauline Colinet        : FMM embedding                                 
  Dipayan Datta          : RHF DLPNO-CCSD density                        
  Achintya Kumar Dutta   : EOM-CC, STEOM-CC                              
  Nicolas Foglia         : Exact transition moments, OPA infrastructure, MCD improvements    
  Dmitry Ganyushin       : Spin-Orbit,Spin-Spin,Magnetic field MRCI      
  Miquel Garcia-Rates    : C-PCM and meta-GGA Hessian, CCSD/C-PCM, Gaussian charge scheme 
  Tiago L. C. Gouveia    : GS-ROHF, GS-ROCIS                             
  Yang Guo               : DLPNO-NEVPT2, F12-NEVPT2, CIM, IAO-localization        
  Andreas Hansen         : Spin unrestricted coupled pair/coupled cluster methods 
  Ingolf Harden          : AUTO-CI MPn and infrastructure                
  Benjamin Helmich-Paris : MC-RPA, TRAH-(SCF,CASSCF), AVAS, COSX integrals, SCF dyn. polar., MC-PDFT, srDFT 
  Lee Huntington         : MR-EOM, pCC                                   
  Robert Izsak           : Overlap fitted RIJCOSX, COSX-SCS-MP3, EOM     
  Riya Kayal             : Wick's Theorem for AUTO-CI, AUTO-CI UHF-CCSDT 
  Emily Kempfer          : AUTO-CI RHF CISDT and CCSDT, approximate NEVPT4
  Christian Kollmar      : KDIIS, OOCD, Brueckner-CCSD(T), CCSD density, CASPT2, CASPT2-K, improved NEVPT2 
  Axel Koslowski         : Symmetry handling                             
  Simone Kossmann        : meta-GGA functionals, TD-DFT gradient, OOMP2, (MP2 Hessian; deprecated post 5.0) 
  Lucas Lang             : DCDCAS, Hyperfine gauge corrections, ICE-SOC+SSC
  Marvin Lechner         : AUTO-CI (C++ implementation), FIC-MRCC        
  Spencer Leger          : CASSCF response                               
  Dagmar Lenk            : GEPOL surface, SMD, ORCA-2-JSON               
  Dimitrios Liakos       : Extrapolation schemes; Compound Job, Property file
  Dimitrios Manganas     : Further ROCIS development; embedding schemes. LFT, Crystal Embedding 
  Dimitrios Pantazis     : SARC Basis sets                               
  Anastasios Papadopoulos: AUTO-CI, single reference methods and gradients 
  Taras Petrenko         : pre 6.0 DFT Hessian and TD-DFT gradient,  ECA, NRVS 
  Petra Pikulova         : Analytic Raman intensities                    
  Peter Pinski           : DLPNO-MP2, DLPNO-MP2 Gradient                 
  Shashank Vittal Rao    : ES-AILFT, MagRelax                            
  Christoph Reimann      : Effective Core Potentials                     
  Marius Retegan         : Local ZFS, SOC                                
  Christoph Riplinger    : Optimizer, TS searches, QM/MM, DLPNO-CCSD(T), (RO)-DLPNO pert. Triples 
  Michael Roemelt        : Original ROCIS implementation, recursive CI coupling coefficients
  Masaaki Saitow         : Open-shell DLPNO-CCSD energy and density      
  Barbara Sandhoefer     : DKH picture change effects                    
  Yorick L. A. Schmerwitz: GMF and freeze-and-release deltaSCF, NEB S-IDPP initial path                    
  Kantharuban Sivalingam : CASSCF convergence/infrastructure, NEVPT2, NEVPT3, NEVPT4(SD), FIC-MRCI and CEPA variants
  Bernardo de Souza      : ESD, SOC TD-DFT                               
  Georgi L. Stoychev     : AutoAux, RI-MP2 NMR, DLPNO-MP2 response, X2C  
  Van Anh Tran           : RI-MP2 g-tensors                              
  Willem Van den Heuvel  : Paramagnetic NMR                              
  Zikuan Wang            : NOTCH, Electric field optimization            
  Frank Wennmohs         : Technical directorship and infrastructure     
  Hang Xu                : AUTO-CI-Response properties                   
                                                                         
[FACCTs GmbH]                                                            
  Markus Bursch, Nicolas Foglia, Miquel Garcia-Rates, Ingolf Harden, Hagen Neugebauer, Anastasios Papadopoulos, 
  Christoph Riplinger, Bernardo de Souza, Georgi L. Stoychev                                                    
                                                                 
  APM, various basis sets, CI-OPT, improved COSX, DLPNO-Multilevel,           
  DOCKER, DRACO, updates on ESD, Fragmentator, GOAT, IRC, LR-CPCM, L-BFGS, MBIS, meta-GGA TD-DFT gradient, ML-optimized integration grids, 
  MM, NACMEs, nearIR, NEB, NEB-TS, NL-DFT gradient (VV10), 2- and 3-layer-ONIOM, interface openCOSMO-RS, QMMM,   
  Crystal-QMMM, RESP, rigid body optimization, SF, symmetry and pop. for TD-DFT, various functionals, SOLVATOR                                   
                                                                         
[Other institutions]                                                     
  V. Asgeirsson          : NEB                                           
  Christoph Bannwarth    : sTDA-DFT, sTD-DFT, PBEh-3c, B97-3c, D3        
  Giovanni Bistoni       : ETS/NOCV, ADLD/ADEX, COVALED                  
  Martin Brehm           : Molecular dynamics                            
  Ronald Cardenas        : ETS/NOCV                                      
  Martina Colucci        : COVALED                                       
  Sebastian Ehlert       : rSCAN, r2SCAN, r2SCAN-3c, D4, dhf basis sets  
  Marvin Friede          : D4 for Fr, Ra, Ac-Lr                          
  Lars Goerigk           : TD-DFT with DH, B97 family of functionals     
  Stefan Grimme          : VdW corrections, initial TS optimization, DFT functionals, gCP, sTDA/sTD-DF 
  Waldemar Hujo          : DFT-NL                                        
  H. Jonsson             : NEB                                           
  Holger Kruse           : gCP                                           
  Marcel Mueller         : wB97X-3c, vDZP basis set                      
  Hagen Neugebauer       : wr2SCAN, Native XTB                           
  Gianluca Regni         : ADLD/ADEX                                     
  Tobias Risthaus        : pre 6.0 range-separated hybrid DFT and stability analysis
  Lukas Wittmann         : regularized MP2, r2SCAN double-hybrids, wr2SCAN        
                                                                         
We gratefully acknowledge several colleagues who have allowed us to      
interface, adapt or use parts of their codes:                            
  Ed Valeev, F. Pavosevic, A. Kumar             : LibInt (2-el integral package), F12 methods 
  Garnet Chan, S. Sharma, J. Yang, R. Olivares  : DMRG                   
  Ulf Ekstrom                                   : XCFun DFT Library      
  Mihaly Kallay                                 : mrcc  (arbitrary order and MRCC methods)
  Frank Weinhold                                : gennbo (NPA and NBO analysis)           
  Simon Mueller                                 : openCOSMO-RS                            
  Christopher J. Cramer and Donald G. Truhlar   : smd solvation model                     
  S Lehtola, MJT Oliveira, MAL Marques          : LibXC Library                           
  Liviu Ungur et al                             : ANISO software                          


 Your calculation uses the libint2 library for the computation of 2-el integrals
 For citations please refer to: http://libint.valeyev.net

 Your ORCA version has been built with support for libXC version: 7.0.0
 For citations please refer to: https://libxc.gitlab.io

 This ORCA versions uses:
   CBLAS   interface :  Fast vector & matrix operations
   LAPACKE interface :  Fast linear algebra routines
   SCALAPACK package :  Parallel linear algebra routines
   Shared memory     :  Shared parallel matrices
   BLAS/LAPACK       :  OpenBLAS 0.3.29  USE64BITINT DYNAMIC_ARCH NO_AFFINITY Zen SINGLE_THREADED
        Core in use  :  Zen
   Copyright (c) 2011-2014, The OpenBLAS Project


  ***********************************
  * Starting time: Thu Apr 23 11:54:41 2026
  * Host name:     vmi3233575
  * Process ID:    1182762
  * Working dir.:  /root/b12_scan/jobs/double_ring_nn2.00
  ***********************************

NOTE: MaxCore=2500 MB was set to SCF,MP2,MDCI,CIPSI,MRCI,RASCI and CIS
      => If you want to overwrite this, your respective input block should be placed after the MaxCore statement
Your calculation utilizes the atom-pairwise dispersion correction
with the Becke-Johnson damping scheme (D3BJ)


================================================================================

----- Orbital basis set information -----
Your calculation utilizes the basis: def2-SVP
   F. Weigend and R. Ahlrichs, Phys. Chem. Chem. Phys. 7, 3297 (2005).

----- AuxJ basis set information -----
Your calculation utilizes the auxiliary basis: def2/J
   H-Rn: F. Weigend, Phys. Chem. Chem. Phys. 8, 1057 (2006).
   Fr-Lr: K. Eichkorn, F. Weigend, O. Treutler, R. Ahlrichs; Theor. Chem. Acc. 97, 119 (1997).

================================================================================
                                        WARNINGS
                       Please study these warnings very carefully!
================================================================================


WARNING: Geometry Optimization
  ===> : Switching off AutoStart
         For restart on a previous wavefunction, please use MOREAD

================================================================================
                                       INPUT FILE
================================================================================
NAME = double_ring_nn2.00.inp
|  1> ! BP86 def2-SVP def2/J RI Opt TightSCF D3BJ
|  2> ! SlowConv
|  3> 
|  4> %pal nprocs 8 end
|  5> %maxcore 2500
|  6> 
|  7> %geom
|  8>   MaxIter 300
|  9> end
| 10> 
| 11> * xyz 0 1
| 12> B     -1.00000000     -0.00000000      0.00000000
| 13> B     -2.25000000      2.16506351      0.00000000
| 14> B     -4.75000000      2.16506351      0.00000000
| 15> B     -6.00000000      0.00000000      0.00000000
| 16> B     -4.75000000     -2.16506351      0.00000000
| 17> B     -2.25000000     -2.16506351      0.00000000
| 18> B      6.00000000     -0.00000000      0.00000000
| 19> B      4.75000000      2.16506351      0.00000000
| 20> B      2.25000000      2.16506351      0.00000000
| 21> B      1.00000000      0.00000000      0.00000000
| 22> B      2.25000000     -2.16506351      0.00000000
| 23> B      4.75000000     -2.16506351      0.00000000
| 24> *
| 25> 
| 26>                          ****END OF INPUT****
================================================================================

                       *****************************
                       * Geometry Optimization Run *
                       *****************************

Geometry optimization settings:
Update method            Update   .... BFGS
Choice of coordinates    CoordSys .... (2022) Redundant Internals
Initial Hessian          InHess   .... Almloef's Model
Max. no of cycles        MaxIter  .... 300

Convergence Tolerances:
Energy Change            TolE     ....  5.0000e-06 Eh
Max. Gradient            TolMAXG  ....  3.0000e-04 Eh/bohr
RMS Gradient             TolRMSG  ....  1.0000e-04 Eh/bohr
Max. Displacement        TolMAXD  ....  4.0000e-03 bohr
RMS Displacement         TolRMSD  ....  2.0000e-03 bohr
Strict Convergence                .... False

------------------------------------------------------------------------------
                        ORCA OPTIMIZATION COORDINATE SETUP
------------------------------------------------------------------------------

The optimization will be done in redundant internal coordinates (2022)
Making redundant internal coordinates   ...  (2022 redundants) done
Evaluating the initial hessian          ...  (Almloef) done
Evaluating the coordinates              ...  done
Calculating the B-matrix                .... done
Calculating the G-matrix                .... done
The number of degrees of freedom        ....   49

    -----------------------------------------------------------------
                    Redundant Internal Coordinates


    -----------------------------------------------------------------
         Definition                    Initial Value    Approx d2E/dq
    -----------------------------------------------------------------
      1. B(B   1,B   0)                  2.5000         0.014205   
      2. B(B   2,B   1)                  2.5000         0.014205   
      3. B(B   3,B   2)                  2.5000         0.014205   
      4. B(B   4,B   3)                  2.5000         0.014205   
      5. B(B   5,B   4)                  2.5000         0.014205   
      6. B(B   5,B   0)                  2.5000         0.014205   
      7. B(B   7,B   6)                  2.5000         0.014205   
      8. B(B   8,B   7)                  2.5000         0.014205   
      9. B(B   9,B   8)                  2.5000         0.014205   
     10. B(B   9,B   0)                  2.0000         0.089157   
     11. B(B  10,B   9)                  2.5000         0.014205   
     12. B(B  11,B  10)                  2.5000         0.014205   
     13. B(B  11,B   6)                  2.5000         0.014205   
     14. A(B   1,B   0,B   9)          120.0000         0.187756   
     15. A(B   5,B   0,B   9)          120.0000         0.187756   
     16. A(B   1,B   0,B   5)          120.0000         0.154165   
     17. A(B   0,B   1,B   2)          120.0000         0.154165   
     18. A(B   1,B   2,B   3)          120.0000         0.154165   
     19. A(B   2,B   3,B   4)          120.0000         0.154165   
     20. A(B   3,B   4,B   5)          120.0000         0.154165   
     21. A(B   0,B   5,B   4)          120.0000         0.154165   
     22. A(B   7,B   6,B  11)          120.0000         0.154165   
     23. A(B   6,B   7,B   8)          120.0000         0.154165   
     24. A(B   7,B   8,B   9)          120.0000         0.154165   
     25. A(B   8,B   9,B  10)          120.0000         0.154165   
     26. A(B   0,B   9,B  10)          120.0000         0.187756   
     27. A(B   0,B   9,B   8)          120.0000         0.187756   
     28. A(B   9,B  10,B  11)          120.0000         0.154165   
     29. A(B   6,B  11,B  10)          120.0000         0.154165   
     30. D(B   2,B   1,B   0,B   5)      0.0000         0.010000   
     31. D(B   2,B   1,B   0,B   9)    180.0000         0.010000   
     32. D(B   3,B   2,B   1,B   0)      0.0000         0.010000   
     33. D(B   4,B   3,B   2,B   1)      0.0000         0.010000   
     34. D(B   5,B   4,B   3,B   2)      0.0000         0.010000   
     35. D(B   4,B   5,B   0,B   1)      0.0000         0.010000   
     36. D(B   4,B   5,B   0,B   9)    180.0000         0.010000   
     37. D(B   0,B   5,B   4,B   3)      0.0000         0.010000   
     38. D(B   8,B   7,B   6,B  11)      0.0000         0.010000   
     39. D(B   9,B   8,B   7,B   6)      0.0000         0.010000   
     40. D(B  10,B   9,B   0,B   5)      0.0000         0.010000   
     41. D(B  10,B   9,B   0,B   1)    180.0000         0.010000   
     42. D(B   8,B   9,B   0,B   5)    180.0000         0.010000   
     43. D(B   0,B   9,B   8,B   7)    180.0000         0.010000   
     44. D(B   8,B   9,B   0,B   1)      0.0000         0.010000   
     45. D(B  10,B   9,B   8,B   7)      0.0000         0.010000   
     46. D(B  11,B  10,B   9,B   8)      0.0000         0.010000   
     47. D(B  11,B  10,B   9,B   0)    180.0000         0.010000   
     48. D(B   6,B  11,B  10,B   9)      0.0000         0.010000   
     49. D(B  10,B  11,B   6,B   7)      0.0000         0.010000   
    -----------------------------------------------------------------

Number of atoms                         .... 12
Number of degrees of freedom            .... 49


         *************************************************************
         *                GEOMETRY OPTIMIZATION CYCLE   1            *
         *************************************************************
---------------------------------
CARTESIAN COORDINATES (ANGSTROEM)
---------------------------------
  B     -1.000000   -0.000000    0.000000
  B     -2.250000    2.165064    0.000000
  B     -4.750000    2.165064    0.000000
  B     -6.000000    0.000000    0.000000
  B     -4.750000   -2.165064    0.000000
  B     -2.250000   -2.165064    0.000000
  B      6.000000   -0.000000    0.000000
  B      4.750000    2.165064    0.000000
  B      2.250000    2.165064    0.000000
  B      1.000000    0.000000    0.000000
  B      2.250000   -2.165064    0.000000
  B      4.750000   -2.165064    0.000000

----------------------------
CARTESIAN COORDINATES (A.U.)
----------------------------
  NO LB      ZA    FRAG     MASS         X           Y           Z
   0 B     5.0000    0    10.810   -1.889726   -0.000000    0.000000
   1 B     5.0000    0    10.810   -4.251884    4.091377    0.000000
   2 B     5.0000    0    10.810   -8.976199    4.091377    0.000000
   3 B     5.0000    0    10.810  -11.338357    0.000000    0.000000
   4 B     5.0000    0    10.810   -8.976199   -4.091377    0.000000
   5 B     5.0000    0    10.810   -4.251884   -4.091377    0.000000
   6 B     5.0000    0    10.810   11.338357   -0.000000    0.000000
   7 B     5.0000    0    10.810    8.976199    4.091377    0.000000
   8 B     5.0000    0    10.810    4.251884    4.091377    0.000000
   9 B     5.0000    0    10.810    1.889726    0.000000    0.000000
  10 B     5.0000    0    10.810    4.251884   -4.091377    0.000000
  11 B     5.0000    0    10.810    8.976199   -4.091377    0.000000

--------------------------------
INTERNAL COORDINATES (ANGSTROEM)
--------------------------------
 B      0   0   0     0.000000000000     0.00000000     0.00000000
 B      1   0   0     2.500000000467     0.00000000     0.00000000
 B      2   1   0     2.500000000000   119.99999999     0.00000000
 B      3   2   1     2.500000000467   119.99999999     0.00000000
 B      4   3   2     2.500000000467   120.00000001     0.00000000
 B      5   4   3     2.500000000000   119.99999999     0.00000000
 B      1   2   3     7.000000000000   119.99999999   180.00000085
 B      7   1   2     2.500000000467    60.00000001     0.00000000
 B      8   7   1     2.500000000000   119.99999999     0.00000000
 B      1   2   3     2.000000000000   119.99999999   180.00000085
 B     10   1   2     2.500000000467   119.99999999   180.00000000
 B     11  10   1     2.500000000000   119.99999999   180.00000000

---------------------------
INTERNAL COORDINATES (A.U.)
---------------------------
 B      0   0   0     0.000000000000     0.00000000     0.00000000
 B      1   0   0     4.724315335685     0.00000000     0.00000000
 B      2   1   0     4.724315334803   119.99999999     0.00000000
 B      3   2   1     4.724315335685   119.99999999     0.00000000
 B      4   3   2     4.724315335685   120.00000001     0.00000000
 B      5   4   3     4.724315334803   119.99999999     0.00000000
 B      1   2   3    13.228082937449   119.99999999   180.00000085
 B      7   1   2     4.724315335685    60.00000001     0.00000000
 B      8   7   1     4.724315334803   119.99999999     0.00000000
 B      1   2   3     3.779452267843   119.99999999   180.00000085
 B     10   1   2     4.724315335685   119.99999999   180.00000000
 B     11  10   1     4.724315334803   119.99999999   180.00000000

---------------------
BASIS SET INFORMATION
---------------------
There are 1 groups of distinct atoms

 Group   1 Type B   : 7s4p1d contracted to 3s2p1d pattern {511/31/1}

Atom   0B    basis set group =>   1
Atom   1B    basis set group =>   1
Atom   2B    basis set group =>   1
Atom   3B    basis set group =>   1
Atom   4B    basis set group =>   1
Atom   5B    basis set group =>   1
Atom   6B    basis set group =>   1
Atom   7B    basis set group =>   1
Atom   8B    basis set group =>   1
Atom   9B    basis set group =>   1
Atom  10B    basis set group =>   1
Atom  11B    basis set group =>   1
---------------------------------
AUXILIARY/J BASIS SET INFORMATION
---------------------------------
There are 1 groups of distinct atoms

 Group   1 Type B   : 12s5p4d2f1g contracted to 6s4p3d1f1g pattern {711111/2111/211/2/1}

Atom   0B    basis set group =>   1
Atom   1B    basis set group =>   1
Atom   2B    basis set group =>   1
Atom   3B    basis set group =>   1
Atom   4B    basis set group =>   1
Atom   5B    basis set group =>   1
Atom   6B    basis set group =>   1
Atom   7B    basis set group =>   1
Atom   8B    basis set group =>   1
Atom   9B    basis set group =>   1
Atom  10B    basis set group =>   1
Atom  11B    basis set group =>   1


           ************************************************************
           *        Program running with 8 parallel MPI-processes     *
           *              working on a common directory               *
           ************************************************************
------------------------------------------------------------------------------
                             ORCA STARTUP CALCULATIONS
                           -- RI-GTO INTEGRALS CHOSEN --
------------------------------------------------------------------------------
------------------------------------------------------------------------------
                   ___                                                        
                  /   \      - P O W E R E D   B Y -                         
                 /     \                                                     
                 |  |  |   _    _      __       _____    __    __             
                 |  |  |  | |  | |    /  \     |  _  \  |  |  /  |          
                  \  \/   | |  | |   /    \    | | | |  |  | /  /          
                 / \  \   | |__| |  /  /\  \   | |_| |  |  |/  /          
                |  |  |   |  __  | /  /__\  \  |    /   |      \           
                |  |  |   | |  | | |   __   |  |    \   |  |\   \          
                \     /   | |  | | |  |  |  |  | |\  \  |  | \   \       
                 \___/    |_|  |_| |__|  |__|  |_| \__\ |__|  \__/        
                                                                              
                      - O R C A' S   B I G   F R I E N D -                    
                                      &                                       
                       - I N T E G R A L  F E E D E R -                       
                                                                              
 v1 FN, 2020, v2 2021, v3 2022-2024                                           
------------------------------------------------------------------------------


----------------------
SHARK INTEGRAL PACKAGE
----------------------

Number of atoms                             ...     12
Number of basis functions                   ...    168
Number of shells                            ...     72
Maximum angular momentum                    ...      2
Integral batch strategy                     ... SHARK/LIBINT Hybrid
RI-J (if used) integral strategy            ... SPLIT-RIJ (Revised 2003 algorithm where possible)
Printlevel                                  ...      1
Contraction scheme used                     ... SEGMENTED contraction
Prescreening option                         ... SCHWARTZ
   Thresh                                   ... 2.500e-11
   Tcut                                     ... 2.500e-12
   Tpresel                                  ... 2.500e-12 
Coulomb Range Separation                    ... NOT USED
Exchange Range Separation                   ... NOT USED
Multipole approximations                    ... NOT USED
Finite Nucleus Model                        ... NOT USED
CABS basis                                  ... NOT available
Auxiliary Coulomb fitting basis             ... AVAILABLE
   # of basis functions in Aux-J            ...    588
   # of shells in Aux-J                     ...    180
   Maximum angular momentum in Aux-J        ...      4
Auxiliary J/K fitting basis                 ... NOT available
Auxiliary Correlation fitting basis         ... NOT available
Auxiliary 'external' fitting basis          ... NOT available

Checking pre-screening integrals            ... done (  0.0 sec) Dimension = 72
   => SHARK Basis and OBASIS are compatible. Storing Pre-screening
Shell pair information
Shell pair cut-off parameter TPreSel        ...   2.5e-12
Total number of shell pairs                 ...      2628
Shell pairs after pre-screening             ...      2092
Total number of primitive shell pairs       ...     10596
Primitive shell pairs kept                  ...      5506
          la=0 lb=0:    498 shell pairs
          la=1 lb=0:    734 shell pairs
          la=1 lb=1:    273 shell pairs
          la=2 lb=0:    310 shell pairs
          la=2 lb=1:    228 shell pairs
          la=2 lb=2:     49 shell pairs

Checking whether 4 symmetric matrices of dimension 168 fit in memory
:Max Core in MB      =   2500.00
 MB in use           =      6.07
 MB left             =   2493.93
 MB needed           =      0.43
 Data fit in memory  = YES
Calculating RI/J V-Matrix + Cholesky decomp.... done (  0.0 sec)
Calculating Nuclear repulsion               ... done (  0.0 sec) ENN=    190.154245812739 Eh

Diagonalization of the overlap matrix:
Smallest eigenvalue                        ... 6.650e-03
Time for diagonalization                   ...    0.003 sec
Threshold for overlap eigenvalues          ... 1.000e-07
Number of eigenvalues below threshold      ... 0
Time for construction of square roots      ...    0.002 sec
Total time needed                          ...    0.007 sec

-------------------
DFT GRID GENERATION
-------------------

General Integration Accuracy     IntAcc      ... 4.388
Radial Grid Type                 RadialGrid  ... OptM3 with GC (2021)
Angular Grid (max. ang.)         AngularGrid ... 4 (Lebedev-302)
Angular grid pruning method      GridPruning ... 4 (adaptive)
Weight generation scheme         WeightScheme... mBecke (2022)
Basis function cutoff            BFCut       ... 1.0000e-11
Integration weight cutoff        WCut        ... 1.0000e-14
Partially contracted basis set               ... off
Rotationally invariant grid construction     ... off
Angular grids for H and He will be reduced by one unit

Total number of grid points                  ...    73102
Total number of batches                      ...     1150
Average number of points per batch           ...       63
Average number of grid points per atom       ...     6092
Grids setup in   0.7 sec
Initializing property integral containers    ... done (  0.0 sec)

SHARK setup successfully completed in   0.9 seconds

Maximum memory used throughout the entire STARTUP-calculation: 19.3 MB


           ************************************************************
           *        Program running with 8 parallel MPI-processes     *
           *              working on a common directory               *
           ************************************************************
-------------------------------------------------------------------------------
                                 ORCA GUESS
                   Start orbitals & Density for SCF / CASSCF
-------------------------------------------------------------------------------

------------
SCF SETTINGS
------------
Hamiltonian:
 Density Functional     Method          .... DFT(GTOs)
 Exchange Functional    Exchange        .... B88
   X-Alpha parameter    XAlpha          ....  0.666667
   Becke's b parameter  XBeta           ....  0.004200
 Correlation Functional Correlation     .... P86
 LDA part of GGA corr.  LDAOpt          .... PW91-LDA
 Gradients option       PostSCFGGA      .... off
   NL short-range parameter             ....  4.400000
 RI-approximation to the Coulomb term is turned on
   Number of AuxJ basis functions       .... 588


General Settings:
 Integral files         IntName         .... double_ring_nn2.00
 Hartree-Fock type      HFTyp           .... RHF
 Total Charge           Charge          ....    0
 Multiplicity           Mult            ....    1
 Number of Electrons    NEL             ....   60
 Basis Dimension        Dim             ....  168
 Nuclear Repulsion      ENuc            ....    190.1542458127 Eh

Convergence Acceleration:
 AO-DIIS                CNVDIIS         .... on
   Start iteration      DIISMaxIt       ....     0
   Startup error        DIISStart       ....  0.200000
   # of expansion vecs  DIISMaxEq       ....     5
   Bias factor          DIISBfac        ....   1.050
   Max. coefficient     DIISMaxC        ....  10.000
 MO-DIIS                CNVKDIIS        .... off
 Trust-Rad. Augm. Hess. CNVTRAH         .... auto
   Auto Start mean grad. ratio tolernc. ....  1.125000
   Auto Start start iteration           ....    50
   Auto Start num. interpolation iter.  ....    10
   Max. Number of Micro iterations      ....    24
   Max. Number of Macro iterations      .... Maxiter - #DIIS iter
   Number of Davidson start vectors     ....     2
   Converg. threshold    (grad. norm)   ....   1.000e-05
   Grad. Scal. Fac. for Micro threshold ....   0.100
   Minimum threshold for Micro iter.    ....   1.000e-02
   NR start threshold (gradient norm)   ....   1.000e-04
   Initial trust radius                 ....   0.400
   Minimum AH scaling param. (alpha)    ....   1.000
   Maximum AH scaling param. (alpha)    .... 1000.000
   Quad. conv. algorithm                .... NR
   White noise on init. David. guess    .... on
   Maximum white noise                  ....   0.010
   Pseudo random numbers                .... off
   Inactive MOs                         .... canonical
   Orbital update algorithm             .... Taylor
   Preconditioner                       .... Diag
   Full preconditioner red. dimension   ....   250
 SOSCF                 CNVSOSCF           .... on
   Start iteration     SOSCFMaxIt         ....   150
   Startup grad/error  SOSCFStart         ....  0.001000
   Hessian update      SOSCFHessUp        .... L-BFGS
   Autom. constraints  SOSCFAutoConstrain .... off
 Level Shifting         CNVShift        .... on
   Level shift para.    LevelShift      ....    0.2500
   Turn off err/grad.   ShiftErr        ....    0.0000
 Zerner damping         CNVZerner       .... off
 Static damping         CNVDamp         .... on
   Fraction old density DampFac         ....    0.8500
   Max. Damping (<1)    DampMax         ....    0.9800
   Min. Damping (>=0)   DampMin         ....    0.0000
   Turn off err/grad.   DampErr         ....    0.0300

SCF Procedure:
 Maximum # iterations   MaxIter         ....   125
 SCF integral mode      SCFMode         .... Direct
   Integral package                     .... SHARK and LIBINT hybrid scheme
 Reset frequency        DirectResetFreq ....    20
 Integral Threshold     Thresh          ....  2.500e-11 Eh
 Primitive CutOff       TCut            ....  2.500e-12 Eh

Convergence Tolerance:
 Convergence Check Mode ConvCheckMode   .... Total+1el-Energy
 Convergence forced     ConvForced      .... 0
 Energy Change          TolE            ....  1.000e-08 Eh
 1-El. energy change                    ....  1.000e-05 Eh
 Orbital Gradient       TolG            ....  1.000e-05
 Orbital Rotation angle TolX            ....  1.000e-05
 DIIS Error             TolErr          ....  5.000e-07

------------------------------
INITIAL GUESS: MODEL POTENTIAL
------------------------------
Loading Hartree-Fock densities                     ... done
Calculating cut-offs                               ... done
Initializing the effective Hamiltonian             ... done
Setting up the integral package (SHARK)            ... done
Starting the Coulomb interaction                   ... done (   0.0 sec)
Making the grid                                    ... done (   0.1 sec)
Mapping shells                                     ... done
Starting the XC term evaluation                    ... done (   0.0 sec)
  promolecular density results
     # of electrons  =     60.000842568
     EX              =    -44.401255735
     EC              =     -1.702145012
     EX+EC           =    -46.103400746
Transforming the Hamiltonian                       ... done (   0.0 sec)
Diagonalizing the Hamiltonian                      ... done (   0.0 sec)
Back transforming the eigenvectors                 ... done (   0.0 sec)
Now organizing SCF variables                       ... done
                      ------------------
                      INITIAL GUESS DONE (   0.2 sec)
                      ------------------
             **** ENERGY FILE WAS UPDATED (double_ring_nn2.00.en.tmp) ****
Finished Guess after   0.7 sec
Maximum memory used throughout the entire GUESS-calculation: 8.7 MB


           ************************************************************
           *        Program running with 8 parallel MPI-processes     *
           *              working on a common directory               *
           ************************************************************

-------------------------------------------------------------------------------------------
                                      ORCA LEAN-SCF
                              memory conserving SCF solver
-------------------------------------------------------------------------------------------

----------------------------------------D-I-I-S--------------------------------------------
Iteration    Energy (Eh)           Delta-E    RMSDP     MaxDP     DIISErr   Damp  Time(sec)
-------------------------------------------------------------------------------------------
               ***  Starting incremental Fock matrix formation  ***
    1    -295.9213024810409252     0.00e+00  7.13e-03  7.96e-02  1.19e-01  0.850   0.2
Warning: op=0 Small HOMO/LUMO gap (  -0.006) - skipping pre-diagonalization
         Will do a full diagonalization
    2    -296.0691161416177692    -1.48e-01  6.39e-03  5.85e-02  5.91e-02  0.850   0.3
                               ***Turning on AO-DIIS***
    3    -296.0814571379953577    -1.23e-02  4.66e-03  3.53e-02  2.14e-02  0.850   0.2
    4    -296.0431476656648329     3.83e-02  2.55e-02  1.79e-01  4.33e-02  0.000   0.3
    5    -295.4585783070357365     5.85e-01  1.05e-03  6.06e-03  1.64e-01  0.850   0.2
    6    -295.5036316806409786    -4.51e-02  1.70e-03  9.68e-03  1.59e-01  0.850   0.2
    7    -295.5714244377533078    -6.78e-02  2.10e-03  1.17e-02  1.53e-01  0.850   0.2
    8    -295.6469610564261075    -7.55e-02  2.79e-03  1.42e-02  1.45e-01  0.850   0.2
    9    -295.7370061019898912    -9.00e-02  7.32e-03  8.71e-02  1.34e-01  0.850   0.2
   10    -295.9474202890404513    -2.10e-01  5.11e-03  3.99e-02  8.35e-02  0.850   0.2
   11    -296.0456719031926696    -9.83e-02  3.44e-03  2.18e-02  4.88e-02  0.850   0.2
   12    -296.0899835257238237    -4.43e-02  2.47e-03  1.48e-02  2.73e-02  0.850   0.2
   13    -296.1116572937604587    -2.17e-02  1.29e-02  7.16e-02  1.40e-02  0.000   0.3
   14    -296.1142967931674548    -2.64e-03  2.16e-03  1.31e-02  5.90e-02  0.000   0.2
   15    -296.1415783629562384    -2.73e-02  2.20e-04  1.40e-03  4.57e-02  0.850   0.3
   16    -296.1440439229806998    -2.47e-03  3.43e-04  2.24e-03  4.44e-02  0.850   0.3
   17    -296.1476741200461902    -3.63e-03  4.11e-04  2.84e-03  4.24e-02  0.850   0.3
   18    -296.1518012205717696    -4.13e-03  9.56e-04  9.07e-03  4.00e-02  0.850   0.2
   19    -296.1614284280465199    -9.63e-03  1.02e-03  8.34e-03  3.29e-02  0.850   0.2
   20    -296.1697691461039312    -8.34e-03  8.68e-04  7.57e-03  2.53e-02  0.850   0.2
               *** Restarting incremental Fock matrix formation ***
                             ****Resetting DIIS****
Warning: op=0 Small HOMO/LUMO gap (  -0.011) - skipping pre-diagonalization
         Will do a full diagonalization
   21    -296.1754048616672890    -5.64e-03  1.69e-02  1.23e-01  1.90e-02  0.000   0.3
   22    -295.8711001130797058     3.04e-01  6.06e-03  6.36e-02  1.07e-01  0.000   0.2
   23    -296.0457407884023269    -1.75e-01  4.97e-04  3.37e-03  7.17e-02  0.850   0.2
   24    -296.0582545679136501    -1.25e-02  7.23e-04  4.34e-03  6.83e-02  0.850   0.2
   25    -296.0757524828243277    -1.75e-02  8.14e-04  4.98e-03  6.33e-02  0.850   0.2
   26    -296.0940429161937573    -1.83e-02  2.25e-03  2.09e-02  5.76e-02  0.850   0.2
   27    -296.1281334541226897    -3.41e-02  1.85e-03  1.24e-02  4.70e-02  0.850   0.2
   28    -296.1539041758150006    -2.58e-02  1.46e-03  1.01e-02  3.27e-02  0.850   0.2
   29    -296.1681008292657680    -1.42e-02  1.14e-03  8.56e-03  2.15e-02  0.850   0.2
   30    -296.1754139257209317    -7.31e-03  5.93e-03  4.54e-02  1.35e-02  0.000   0.3
   31    -296.1707169681060350     4.70e-03  1.04e-03  7.69e-03  2.63e-02  0.000   0.2
   32    -296.1779265694103742    -7.21e-03  9.24e-04  6.95e-03  1.91e-02  0.000   0.2
   33    -296.1818363456573024    -3.91e-03  7.16e-04  4.79e-03  1.34e-02  0.000   0.2
   34    -296.1840010841895037    -2.16e-03  6.75e-04  6.30e-03  9.42e-03  0.000   0.2
   35    -296.1849196496018521    -9.19e-04  8.02e-04  6.54e-03  6.93e-03  0.000   0.2
   36    -296.1857644464103032    -8.45e-04  6.73e-04  8.01e-03  2.50e-03  0.000   0.2
   37    -296.1859550660121840    -1.91e-04  2.54e-04  2.79e-03  1.59e-03  0.000   0.2
                              *** Initializing SOSCF ***
---------------------------------------S-O-S-C-F--------------------------------------
Iteration    Energy (Eh)           Delta-E    RMSDP     MaxDP     MaxGrad    Time(sec)
--------------------------------------------------------------------------------------
   38    -296.1860040456159595    -4.90e-05  1.64e-04  9.81e-04  8.58e-04     0.2
               *** Restarting incremental Fock matrix formation ***
   39    -296.1860224508704960    -1.84e-05  2.00e-04  2.01e-03  4.25e-04     0.2
   40    -296.1860159865217383     6.46e-06  1.39e-04  1.31e-03  7.24e-04     0.2
   41    -296.1860283178364170    -1.23e-05  2.00e-04  1.71e-03  4.91e-04     0.2
   42    -296.1860206593491966     7.66e-06  1.33e-04  1.23e-03  7.23e-04     0.2
   43    -296.1860329812756163    -1.23e-05  8.64e-05  6.06e-04  1.35e-04     0.2
   44    -296.1860322537211232     7.28e-07  5.07e-05  4.34e-04  2.27e-04     0.2
   45    -296.1860339980549952    -1.74e-06  1.94e-05  1.11e-04  3.52e-05     0.3
   46    -296.1860340879934483    -8.99e-08  4.44e-05  2.54e-04  2.49e-05     0.3
   47    -296.1860338462844311     2.42e-07  2.76e-05  1.37e-04  1.16e-04     0.2
   48    -296.1860341320242469    -2.86e-07  2.53e-06  1.15e-05  5.63e-06     0.2
   49    -296.1860341329694393    -9.45e-10  7.90e-06  2.91e-05  8.44e-06     0.2
                 **** Energy Check signals convergence ****

               *****************************************************
               *                     SUCCESS                       *
               *           SCF CONVERGED AFTER  49 CYCLES          *
               *****************************************************

             **** ENERGY FILE WAS UPDATED (double_ring_nn2.00.en.tmp) ****

----------------
TOTAL SCF ENERGY
----------------

Total Energy       :       -296.18603413171218 Eh           -8059.63173 eV

Components:
Nuclear Repulsion  :        190.15424581273899 Eh            5174.36009 eV
Electronic Energy  :       -486.34027994445120 Eh          -13233.99182 eV
One Electron Energy:       -768.42805985614621 Eh          -20909.99055 eV
Two Electron Energy:        282.08777991169501 Eh            7675.99873 eV

Virial components:
Potential Energy   :       -587.70593608580634 Eh          -15992.29155 eV
Kinetic Energy     :        291.51990195409417 Eh            7932.65982 eV
Virial Ratio       :          2.01600622168964

DFT components:
N(Alpha)           :       29.999997496572 electrons
N(Beta)            :       29.999997496572 electrons
N(Total)           :       59.999994993144 electrons
E(X)               :      -44.568892779746 Eh       
E(C)               :       -1.736468087939 Eh       
E(XC)              :      -46.305360867684 Eh       

---------------
SCF CONVERGENCE
---------------

  Last Energy change         ...    9.4519e-10  Tolerance :   1.0000e-08
  Last MAX-Density change    ...    2.9139e-05  Tolerance :   1.0000e-07
  Last RMS-Density change    ...    7.9026e-06  Tolerance :   5.0000e-09
  Last DIIS Error            ...    8.5793e-04  Tolerance :   5.0000e-07
  Last Orbital Gradient      ...    8.4389e-06  Tolerance :   1.0000e-05
  Last Orbital Rotation      ...    1.6865e-04  Tolerance :   1.0000e-05


----------------
ORBITAL ENERGIES
----------------

  NO   OCC          E(Eh)            E(eV) 
   0   2.0000      -6.662846      -181.3053 
   1   2.0000      -6.662836      -181.3050 
   2   2.0000      -6.662822      -181.3046 
   3   2.0000      -6.662802      -181.3041 
   4   2.0000      -6.661206      -181.2606 
   5   2.0000      -6.661188      -181.2601 
   6   2.0000      -6.661183      -181.2600 
   7   2.0000      -6.661164      -181.2595 
   8   2.0000      -6.658174      -181.1781 
   9   2.0000      -6.658140      -181.1772 
  10   2.0000      -6.629756      -180.4048 
  11   2.0000      -6.629568      -180.3997 
  12   2.0000      -0.438147       -11.9226 
  13   2.0000      -0.418694       -11.3932 
  14   2.0000      -0.410261       -11.1638 
  15   2.0000      -0.396350       -10.7852 
  16   2.0000      -0.394792       -10.7428 
  17   2.0000      -0.378590       -10.3020 
  18   2.0000      -0.353935        -9.6311 
  19   2.0000      -0.335519        -9.1299 
  20   2.0000      -0.329460        -8.9651 
  21   2.0000      -0.312186        -8.4950 
  22   2.0000      -0.288396        -7.8477 
  23   2.0000      -0.249645        -6.7932 
  24   2.0000      -0.230016        -6.2590 
  25   2.0000      -0.214639        -5.8406 
  26   2.0000      -0.208227        -5.6662 
  27   2.0000      -0.190883        -5.1942 
  28   2.0000      -0.186651        -5.0790 
  29   2.0000      -0.180588        -4.9141 
  30   0.0000      -0.183024        -4.9803 
  31   0.0000      -0.168998        -4.5987 
  32   0.0000      -0.167679        -4.5628 
  33   0.0000      -0.166179        -4.5220 
  34   0.0000      -0.165118        -4.4931 
  35   0.0000      -0.163175        -4.4402 
  36   0.0000      -0.162244        -4.4149 
  37   0.0000      -0.160985        -4.3806 
  38   0.0000      -0.160294        -4.3618 
  39   0.0000      -0.150984        -4.1085 
  40   0.0000      -0.145955        -3.9716 
*Only the first 10 virtual orbitals were printed.

                    ********************************
                    * MULLIKEN POPULATION ANALYSIS *
                    ********************************

-----------------------
MULLIKEN ATOMIC CHARGES
-----------------------
   0 B :   -0.102906
   1 B :    0.049997
   2 B :    0.002435
   3 B :   -0.001946
   4 B :    0.002445
   5 B :    0.050008
   6 B :   -0.001991
   7 B :    0.002406
   8 B :    0.050009
   9 B :   -0.102893
  10 B :    0.050021
  11 B :    0.002416
Sum of atomic charges:   -0.0000000

--------------------------------
MULLIKEN REDUCED ORBITAL CHARGES
--------------------------------
  0 B s       :     3.485303  s :     3.485303
      pz      :     0.435582  p :     1.608230
      px      :     0.709076
      py      :     0.463571
      dz2     :     0.001261  d :     0.009373
      dxz     :     0.000785
      dyz     :     0.000000
      dx2y2   :     0.004656
      dxy     :     0.002671

  1 B s       :     3.786261  s :     3.786261
      pz      :     0.286549  p :     1.158689
      px      :     0.449460
      py      :     0.422680
      dz2     :     0.000807  d :     0.005053
      dxz     :     0.000138
      dyz     :     0.000190
      dx2y2   :     0.002798
      dxy     :     0.001119

  2 B s       :     3.789390  s :     3.789390
      pz      :     0.326173  p :     1.203303
      px      :     0.495978
      py      :     0.381151
      dz2     :     0.000846  d :     0.004872
      dxz     :     0.000064
      dyz     :     0.000195
      dx2y2   :     0.002291
      dxy     :     0.001477

  3 B s       :     3.792026  s :     3.792026
      pz      :     0.336754  p :     1.205191
      px      :     0.353569
      py      :     0.514867
      dz2     :     0.000846  d :     0.004729
      dxz     :     0.000258
      dyz     :     0.000000
      dx2y2   :     0.000975
      dxy     :     0.002650

  4 B s       :     3.789390  s :     3.789390
      pz      :     0.326169  p :     1.203293
      px      :     0.495976
      py      :     0.381148
      dz2     :     0.000846  d :     0.004872
      dxz     :     0.000064
      dyz     :     0.000195
      dx2y2   :     0.002291
      dxy     :     0.001477

  5 B s       :     3.786261  s :     3.786261
      pz      :     0.286545  p :     1.158679
      px      :     0.449457
      py      :     0.422677
      dz2     :     0.000807  d :     0.005053
      dxz     :     0.000138
      dyz     :     0.000190
      dx2y2   :     0.002798
      dxy     :     0.001119

  6 B s       :     3.792029  s :     3.792029
      pz      :     0.336770  p :     1.205233
      px      :     0.353586
      py      :     0.514876
      dz2     :     0.000846  d :     0.004729
      dxz     :     0.000258
      dyz     :     0.000000
      dx2y2   :     0.000975
      dxy     :     0.002650

  7 B s       :     3.789392  s :     3.789392
      pz      :     0.326182  p :     1.203329
      px      :     0.495986
      py      :     0.381161
      dz2     :     0.000846  d :     0.004872
      dxz     :     0.000064
      dyz     :     0.000195
      dx2y2   :     0.002291
      dxy     :     0.001478

  8 B s       :     3.786260  s :     3.786260
      pz      :     0.286545  p :     1.158678
      px      :     0.449457
      py      :     0.422677
      dz2     :     0.000807  d :     0.005053
      dxz     :     0.000138
      dyz     :     0.000190
      dx2y2   :     0.002798
      dxy     :     0.001119

  9 B s       :     3.485302  s :     3.485302
      pz      :     0.435577  p :     1.608218
      px      :     0.709075
      py      :     0.463566
      dz2     :     0.001261  d :     0.009373
      dxz     :     0.000785
      dyz     :     0.000000
      dx2y2   :     0.004656
      dxy     :     0.002671

 10 B s       :     3.786259  s :     3.786259
      pz      :     0.286541  p :     1.158668
      px      :     0.449454
      py      :     0.422673
      dz2     :     0.000807  d :     0.005053
      dxz     :     0.000138
      dyz     :     0.000190
      dx2y2   :     0.002798
      dxy     :     0.001119

 11 B s       :     3.789392  s :     3.789392
      pz      :     0.326178  p :     1.203320
      px      :     0.495984
      py      :     0.381158
      dz2     :     0.000846  d :     0.004872
      dxz     :     0.000064
      dyz     :     0.000195
      dx2y2   :     0.002291
      dxy     :     0.001478



                     *******************************
                     * LOEWDIN POPULATION ANALYSIS *
                     *******************************

----------------------
LOEWDIN ATOMIC CHARGES
----------------------
   0 B :   -0.123418
   1 B :    0.053341
   2 B :    0.012488
   3 B :   -0.008228
   4 B :    0.012498
   5 B :    0.053352
   6 B :   -0.008272
   7 B :    0.012459
   8 B :    0.053353
   9 B :   -0.123406
  10 B :    0.053364
  11 B :    0.012469

-------------------------------
LOEWDIN REDUCED ORBITAL CHARGES
-------------------------------
  0 B s       :     3.244562  s :     3.244562
      pz      :     0.437558  p :     1.855962
      px      :     0.850640
      py      :     0.567764
      dz2     :     0.003295  d :     0.022895
      dxz     :     0.001186
      dyz     :     0.000000
      dx2y2   :     0.012827
      dxy     :     0.005586

  1 B s       :     3.631744  s :     3.631744
      pz      :     0.285664  p :     1.305787
      px      :     0.542431
      py      :     0.477691
      dz2     :     0.001630  d :     0.009129
      dxz     :     0.000179
      dyz     :     0.000236
      dx2y2   :     0.005059
      dxy     :     0.002025

  2 B s       :     3.630588  s :     3.630588
      pz      :     0.325371  p :     1.347665
      px      :     0.585786
      py      :     0.436507
      dz2     :     0.001761  d :     0.009259
      dxz     :     0.000078
      dyz     :     0.000244
      dx2y2   :     0.004474
      dxy     :     0.002703

  3 B s       :     3.637080  s :     3.637080
      pz      :     0.337382  p :     1.361992
      px      :     0.396455
      py      :     0.628154
      dz2     :     0.001777  d :     0.009156
      dxz     :     0.000325
      dyz     :     0.000000
      dx2y2   :     0.001726
      dxy     :     0.005328

  4 B s       :     3.630587  s :     3.630587
      pz      :     0.325368  p :     1.347656
      px      :     0.585784
      py      :     0.436504
      dz2     :     0.001761  d :     0.009259
      dxz     :     0.000078
      dyz     :     0.000244
      dx2y2   :     0.004474
      dxy     :     0.002703

  5 B s       :     3.631743  s :     3.631743
      pz      :     0.285660  p :     1.305776
      px      :     0.542429
      py      :     0.477688
      dz2     :     0.001630  d :     0.009129
      dxz     :     0.000179
      dyz     :     0.000236
      dx2y2   :     0.005059
      dxy     :     0.002025

  6 B s       :     3.637083  s :     3.637083
      pz      :     0.337399  p :     1.362033
      px      :     0.396472
      py      :     0.628162
      dz2     :     0.001777  d :     0.009156
      dxz     :     0.000325
      dyz     :     0.000000
      dx2y2   :     0.001726
      dxy     :     0.005328

  7 B s       :     3.630590  s :     3.630590
      pz      :     0.325380  p :     1.347691
      px      :     0.585794
      py      :     0.436517
      dz2     :     0.001761  d :     0.009260
      dxz     :     0.000078
      dyz     :     0.000244
      dx2y2   :     0.004474
      dxy     :     0.002703

  8 B s       :     3.631742  s :     3.631742
      pz      :     0.285659  p :     1.305776
      px      :     0.542429
      py      :     0.477688
      dz2     :     0.001630  d :     0.009129
      dxz     :     0.000179
      dyz     :     0.000236
      dx2y2   :     0.005059
      dxy     :     0.002025

  9 B s       :     3.244561  s :     3.244561
      pz      :     0.437552  p :     1.855951
      px      :     0.850639
      py      :     0.567760
      dz2     :     0.003295  d :     0.022895
      dxz     :     0.001186
      dyz     :     0.000000
      dx2y2   :     0.012827
      dxy     :     0.005586

 10 B s       :     3.631741  s :     3.631741
      pz      :     0.285656  p :     1.305765
      px      :     0.542426
      py      :     0.477684
      dz2     :     0.001630  d :     0.009129
      dxz     :     0.000179
      dyz     :     0.000236
      dx2y2   :     0.005059
      dxy     :     0.002025

 11 B s       :     3.630590  s :     3.630590
      pz      :     0.325377  p :     1.347682
      px      :     0.585792
      py      :     0.436514
      dz2     :     0.001761  d :     0.009260
      dxz     :     0.000078
      dyz     :     0.000244
      dx2y2   :     0.004474
      dxy     :     0.002703



                      *****************************
                      * MAYER POPULATION ANALYSIS *
                      *****************************

  NA   - Mulliken gross atomic population
  ZA   - Total nuclear charge
  QA   - Mulliken gross atomic charge
  VA   - Mayer's total valence
  BVA  - Mayer's bonded valence
  FA   - Mayer's free valence

  ATOM       NA         ZA         QA         VA         BVA        FA
  0 B      5.1029     5.0000    -0.1029     2.9931     2.9931    -0.0000
  1 B      4.9500     5.0000     0.0500     2.1434     2.1434    -0.0000
  2 B      4.9976     5.0000     0.0024     2.2188     2.2188    -0.0000
  3 B      5.0019     5.0000    -0.0019     2.2198     2.2198    -0.0000
  4 B      4.9976     5.0000     0.0024     2.2188     2.2188    -0.0000
  5 B      4.9500     5.0000     0.0500     2.1434     2.1434    -0.0000
  6 B      5.0020     5.0000    -0.0020     2.2198     2.2198    -0.0000
  7 B      4.9976     5.0000     0.0024     2.2188     2.2188    -0.0000
  8 B      4.9500     5.0000     0.0500     2.1434     2.1434    -0.0000
  9 B      5.1029     5.0000    -0.1029     2.9931     2.9931    -0.0000
 10 B      4.9500     5.0000     0.0500     2.1434     2.1434    -0.0000
 11 B      4.9976     5.0000     0.0024     2.2188     2.2188     0.0000

  Mayer bond orders larger than 0.100000
B(  0-B ,  1-B ) :   0.6903 B(  0-B ,  2-B ) :   0.1643 B(  0-B ,  3-B ) :   0.1505 
B(  0-B ,  4-B ) :   0.1643 B(  0-B ,  5-B ) :   0.6903 B(  0-B ,  9-B ) :   0.8833 
B(  1-B ,  2-B ) :   0.5937 B(  1-B ,  3-B ) :   0.2577 B(  1-B ,  4-B ) :   0.1703 
B(  1-B ,  5-B ) :   0.2618 B(  2-B ,  3-B ) :   0.6285 B(  2-B ,  4-B ) :   0.2956 
B(  2-B ,  5-B ) :   0.1703 B(  2-B , 11-B ) :   0.1048 B(  3-B ,  4-B ) :   0.6285 
B(  3-B ,  5-B ) :   0.2577 B(  4-B ,  5-B ) :   0.5937 B(  4-B ,  7-B ) :   0.1048 
B(  6-B ,  7-B ) :   0.6285 B(  6-B ,  8-B ) :   0.2577 B(  6-B ,  9-B ) :   0.1505 
B(  6-B , 10-B ) :   0.2577 B(  6-B , 11-B ) :   0.6285 B(  7-B ,  8-B ) :   0.5937 
B(  7-B ,  9-B ) :   0.1643 B(  7-B , 10-B ) :   0.1703 B(  7-B , 11-B ) :   0.2956 
B(  8-B ,  9-B ) :   0.6903 B(  8-B , 10-B ) :   0.2618 B(  8-B , 11-B ) :   0.1703 
B(  9-B , 10-B ) :   0.6903 B(  9-B , 11-B ) :   0.1643 B( 10-B , 11-B ) :   0.5937 


-------
TIMINGS
-------

Total SCF time: 0 days 0 hours 0 min 11 sec 

Total time                  ....      11.780 sec
Sum of individual times     ....      11.406 sec  ( 96.8%)

SCF preparation             ....       0.508 sec  (  4.3%)
Fock matrix formation       ....       9.003 sec  ( 76.4%)
  Startup                   ....       0.036 sec  (  0.4% of F)
  Split-RI-J                ....       3.125 sec  ( 34.7% of F)
  XC integration            ....       5.238 sec  ( 58.2% of F)
    XC Preparation          ....       0.000 sec  (  0.0% of XC)
    Basis function eval.    ....       1.329 sec  ( 25.4% of XC)
    Density eval.           ....       0.633 sec  ( 12.1% of XC)
    XC-Functional eval.     ....       0.272 sec  (  5.2% of XC)
    XC-Potential eval.      ....       0.692 sec  ( 13.2% of XC)
Diagonalization             ....       0.000 sec  (  0.0%)
Density matrix formation    ....       0.343 sec  (  2.9%)
Total Energy calculation    ....       0.138 sec  (  1.2%)
Population analysis         ....       0.032 sec  (  0.3%)
Orbital Transformation      ....       0.058 sec  (  0.5%)
Orbital Orthonormalization  ....       0.000 sec  (  0.0%)
DIIS solution               ....       1.053 sec  (  8.9%)
SOSCF solution              ....       0.271 sec  (  2.3%)
Finished LeanSCF after  11.8 sec

Maximum memory used throughout the entire LEANSCF-calculation: 8.6 MB


-------------------------------------------------------------------------------
                          DFT DISPERSION CORRECTION                            
                                                                               
                              DFTD3 V3.1  Rev 1                                
                          USING Becke-Johnson damping                          
-------------------------------------------------------------------------------
The BP86 functional is recognized
Active option DFTDOPT                   ...         4   

molecular C6(AA) [au] = 14515.787337 


            DFT-D V3
 parameters
 s6 scaling factor         :     1.0000 
 a1 scaling factor         :     0.3946 
 s8 scaling factor         :     3.2822 
 a2 scaling factor         :     4.8516 
 ad hoc parameters k1-k3   :    16.0000     1.3333    -4.0000 

 Edisp/kcal,au: -26.920342182779  -0.042900291428 
 E6   /kcal   :  -8.145837135 
 E8   /kcal   : -18.774505048 
 % E8         :  69.740959906 

-------------------------   ----------------
Dispersion correction           -0.042900291
-------------------------   ----------------


-------------------------   --------------------
FINAL SINGLE POINT ENERGY      -296.228934423140
-------------------------   --------------------



           ************************************************************
           *        Program running with 8 parallel MPI-processes     *
           *              working on a common directory               *
           ************************************************************
------------------------------------------------------------------------------
                         ORCA SCF GRADIENT CALCULATION
------------------------------------------------------------------------------

Nuc. rep. gradient        (SHARK) ... done (  0.0 sec)
HCore & Overlap gradient  (SHARK) ... done (  0.1 sec)
Split-RIJ-J gradient      (SHARK) ... done (  0.3 sec)
XC gradient                       ... done (  0.5 sec)
Dispersion correction             ... done (  0.1 sec)

-------------------
DISPERSION GRADIENT
-------------------

   1   B   :    0.003214233    0.000000000    0.000000000
   2   B   :   -0.000253151    0.000983878    0.000000000
   3   B   :   -0.000496329    0.000849383    0.000000000
   4   B   :   -0.000990733   -0.000000000    0.000000000
   5   B   :   -0.000496329   -0.000849383    0.000000000
   6   B   :   -0.000253151   -0.000983878    0.000000000
   7   B   :    0.000990733    0.000000000    0.000000000
   8   B   :    0.000496329    0.000849383    0.000000000
   9   B   :    0.000253151    0.000983878    0.000000000
  10   B   :   -0.003214233    0.000000000    0.000000000
  11   B   :    0.000253151   -0.000983878    0.000000000
  12   B   :    0.000496329   -0.000849383    0.000000000

Difference to translation invariance:
           :    0.0000000000   -0.0000000000    0.0000000000

Difference to rotation invariance:
           :    0.0000000000    0.0000000000   -0.0000000000

Norm of the Dispersion gradient    ...    0.0055340105
RMS gradient                       ...    0.0009223351
MAX gradient                       ...    0.0032142327

------------------
CARTESIAN GRADIENT
------------------

   1   B   :   -0.010891543   -0.000000005    0.000000000
   2   B   :    0.018888776    0.043546845    0.000000000
   3   B   :   -0.018961034    0.036558069   -0.000000000
   4   B   :   -0.042267520   -0.000000071    0.000000000
   5   B   :   -0.018960893   -0.036558015    0.000000000
   6   B   :    0.018888643   -0.043546823   -0.000000000
   7   B   :    0.042268000   -0.000000064   -0.000000001
   8   B   :    0.018960973    0.036558519   -0.000000000
   9   B   :   -0.018889123    0.043546632    0.000000001
  10   B   :    0.010891883   -0.000000006   -0.000000000
  11   B   :   -0.018888994   -0.043546610    0.000000000
  12   B   :    0.018960830   -0.036558471   -0.000000000

Difference to translation invariance:
           :    0.0000000000   -0.0000000000    0.0000000000

Difference to rotation invariance:
           :    0.0000000014    0.0000000043   -0.0000000041

Norm of the Cartesian gradient     ...    0.1400246811
RMS gradient                       ...    0.0233374468
MAX gradient                       ...    0.0435468453

-------
TIMINGS
-------

Total SCF gradient time     ....        0.992 sec

Densities                   ....       0.003 sec  (  0.3%)
One electron gradient       ....       0.070 sec  (  7.1%)
RI-J Coulomb gradient       ....       0.319 sec  ( 32.2%)
XC gradient                 ....       0.522 sec  ( 52.6%)

Maximum memory used throughout the entire SCFGRAD-calculation: 28.7 MB
------------------------------------------------------------------------------
                         ORCA GEOMETRY RELAXATION STEP
------------------------------------------------------------------------------

Reading the OPT-File                    .... done
Getting information on internals        .... done
Copying old internal coords+grads       .... done
Making the new internal coordinates     .... (2022 redundants) done
Validating the new internal coordinates .... (2022 redundants) done
Calculating the B-matrix                .... done
Calculating the G,G- and P matrices     .... done
Transforming gradient to internals      .... done
Projecting the internal gradient        .... done
Number of atoms                         ....  12
Number of internal coordinates          ....  49
Current Energy                          ....  -296.228934423 Eh
Current gradient norm                   ....     0.140024681 Eh/bohr
Maximum allowed component of the step   ....  0.300
Current trust radius                    ....  0.300
Evaluating the initial hessian          ....  (Almloef) done
Projecting the Hessian                  .... done
Forming the augmented Hessian           .... done
Diagonalizing the augmented Hessian     .... done
Last element of RFO vector              ....  0.727453311
Lowest eigenvalues of augmented Hessian:
 -0.150942015  0.010000000  0.010000000  0.010000000  0.010000000
Length of the computed step             ....  0.943231921
Warning: the length of the step is outside the trust region - taking restricted step instead
The input lambda is                     ....     0.009000
   iter:   5  x=   -0.025452  g= 2487.884198 f(x)=    32.972139
   iter:  10  x=   -0.268603  g=    6.284757 f(x)=     0.540045
   iter:  15  x=   -0.514637  g=    0.336641 f(x)=     0.000055
The output lambda is                    ....    -0.514637 (18 iterations)
The final length of the internal step   ....  0.300000000
Converting the step to Cartesian space:
 Initial RMS(Int)=    0.0428571429
Transforming coordinates:
 Iter   0:  RMS(Cart)=    0.0796527904 RMS(Int)=    1.5552755543
done
Storing new coordinates                 .... done

                                .--------------------.
          ----------------------|Geometry convergence|-------------------------
          Item                value                   Tolerance       Converged
          ---------------------------------------------------------------------
          RMS gradient        0.0229963204            0.0001000000      NO
          MAX gradient        0.0533035700            0.0003000000      NO
          RMS step            0.0428571429            0.0020000000      NO
          MAX step            0.0896153115            0.0040000000      NO
          -------------------------------------------------------------------------
          ........................................................
          Max(Bonds)      0.0474      Max(Angles)    0.50
          Max(Dihed)        0.00      Max(Improp)    0.00
          ---------------------------------------------------------------------

The optimization has not yet converged - more geometry cycles are needed


    ---------------------------------------------------------------------------
                         Redundant Internal Coordinates
                            (Angstroem and degrees)

        Definition                    Value    dE/dq     Step     New-Value
    ----------------------------------------------------------------------------
     1. B(B   1,B   0)                2.5000  0.047413 -0.0474    2.4526   
     2. B(B   2,B   1)                2.5000  0.040095 -0.0401    2.4599   
     3. B(B   3,B   2)                2.5000  0.043130 -0.0432    2.4568   
     4. B(B   4,B   3)                2.5000  0.043130 -0.0432    2.4568   
     5. B(B   5,B   4)                2.5000  0.040095 -0.0401    2.4599   
     6. B(B   5,B   0)                2.5000  0.047413 -0.0474    2.4526   
     7. B(B   7,B   6)                2.5000  0.043131 -0.0432    2.4568   
     8. B(B   8,B   7)                2.5000  0.040095 -0.0401    2.4599   
     9. B(B   9,B   8)                2.5000  0.047412 -0.0474    2.4526   
    10. B(B   9,B   0)                2.0000  0.053304 -0.0467    1.9533   
    11. B(B  10,B   9)                2.5000  0.047412 -0.0474    2.4526   
    12. B(B  11,B  10)                2.5000  0.040095 -0.0401    2.4599   
    13. B(B  11,B   6)                2.5000  0.043131 -0.0432    2.4568   
    14. A(B   1,B   0,B   9)          120.00 -0.003004    0.25    120.25   
    15. A(B   5,B   0,B   9)          120.00 -0.003004    0.25    120.25   
    16. A(B   1,B   0,B   5)          120.00  0.006008   -0.50    119.50   
    17. A(B   0,B   1,B   2)          120.00 -0.004628    0.40    120.40   
    18. A(B   1,B   2,B   3)          120.00  0.000298   -0.03    119.97   
    19. A(B   2,B   3,B   4)          120.00  0.002651   -0.24    119.76   
    20. A(B   3,B   4,B   5)          120.00  0.000298   -0.03    119.97   
    21. A(B   0,B   5,B   4)          120.00 -0.004628    0.40    120.40   
    22. A(B   7,B   6,B  11)          120.00  0.002651   -0.24    119.76   
    23. A(B   6,B   7,B   8)          120.00  0.000298   -0.03    119.97   
    24. A(B   7,B   8,B   9)          120.00 -0.004628    0.40    120.40   
    25. A(B   8,B   9,B  10)          120.00  0.006008   -0.50    119.50   
    26. A(B   0,B   9,B  10)          120.00 -0.003004    0.25    120.25   
    27. A(B   0,B   9,B   8)          120.00 -0.003004    0.25    120.25   
    28. A(B   9,B  10,B  11)          120.00 -0.004628    0.40    120.40   
    29. A(B   6,B  11,B  10)          120.00  0.000298   -0.03    119.97   
    30. D(B   2,B   1,B   0,B   5)      0.00  0.000000   -0.00     -0.00   
    31. D(B   2,B   1,B   0,B   9)    180.00 -0.000000    0.00    180.00   
    32. D(B   3,B   2,B   1,B   0)      0.00  0.000000   -0.00     -0.00   
    33. D(B   4,B   3,B   2,B   1)      0.00 -0.000000    0.00      0.00   
    34. D(B   5,B   4,B   3,B   2)      0.00 -0.000000    0.00      0.00   
    35. D(B   4,B   5,B   0,B   1)      0.00 -0.000000    0.00      0.00   
    36. D(B   4,B   5,B   0,B   9)    180.00  0.000000   -0.00    180.00   
    37. D(B   0,B   5,B   4,B   3)      0.00  0.000000   -0.00     -0.00   
    38. D(B   8,B   7,B   6,B  11)      0.00 -0.000000    0.00      0.00   
    39. D(B   9,B   8,B   7,B   6)      0.00 -0.000000    0.00      0.00   
    40. D(B  10,B   9,B   0,B   5)      0.00 -0.000000    0.00      0.00   
    41. D(B  10,B   9,B   0,B   1)    180.00  0.000000   -0.00    180.00   
    42. D(B   8,B   9,B   0,B   5)    180.00 -0.000000    0.00    180.00   
    43. D(B   0,B   9,B   8,B   7)    180.00  0.000000   -0.00    180.00   
    44. D(B   8,B   9,B   0,B   1)      0.00  0.000000   -0.00     -0.00   
    45. D(B  10,B   9,B   8,B   7)      0.00  0.000000   -0.00     -0.00   
    46. D(B  11,B  10,B   9,B   8)      0.00 -0.000000    0.00      0.00   
    47. D(B  11,B  10,B   9,B   0)    180.00 -0.000000    0.00    180.00   
    48. D(B   6,B  11,B  10,B   9)      0.00 -0.000000    0.00      0.00   
    49. D(B  10,B  11,B   6,B   7)      0.00  0.000000   -0.00     -0.00   
    ----------------------------------------------------------------------------

Geometry step timings:
Preparation and reading OPT file:      0.000 s ( 2.363 %)
Internal coordinates            :      0.000 s ( 9.229 %)
B/P matrices and projection     :      0.001 s (28.600 %)
Hessian update/contruction      :      0.001 s (12.127 %)
Making the step                 :      0.001 s (27.329 %)
Converting the step to Cartesian:      0.000 s ( 3.923 %)
Storing new data                :      0.000 s ( 2.876 %)
Checking convergence            :      0.000 s ( 1.382 %)
Final printing                  :      0.001 s (12.082 %)
Total time                      :      0.004 s

Time for energy+gradient        :     16.190 s
Time for complete geometry iter :     16.820 s

         *************************************************************
         *                GEOMETRY OPTIMIZATION CYCLE   2            *
         *************************************************************
---------------------------------
CARTESIAN COORDINATES (ANGSTROEM)
---------------------------------
  B     -0.976642   -0.000001   -0.000000
  B     -2.212184    2.118626   -0.000000
  B     -4.672056    2.125108    0.000000
  B     -5.904892    0.000001    0.000000
  B     -4.672057   -2.125107    0.000000
  B     -2.212185   -2.118627   -0.000000
  B      5.904892    0.000001    0.000000
  B      4.672056    2.125107    0.000000
  B      2.212185    2.118626   -0.000000
  B      0.976642   -0.000001   -0.000000
  B      2.212186   -2.118627   -0.000000
  B      4.672057   -2.125107    0.000000

----------------------------
CARTESIAN COORDINATES (A.U.)
----------------------------
  NO LB      ZA    FRAG     MASS         X           Y           Z
   0 B     5.0000    0    10.810   -1.845586   -0.000001   -0.000000
   1 B     5.0000    0    10.810   -4.180423    4.003624   -0.000000
   2 B     5.0000    0    10.810   -8.828906    4.015872    0.000000
   3 B     5.0000    0    10.810  -11.158630    0.000001    0.000000
   4 B     5.0000    0    10.810   -8.828908   -4.015870    0.000000
   5 B     5.0000    0    10.810   -4.180424   -4.003625   -0.000000
   6 B     5.0000    0    10.810   11.158629    0.000001    0.000000
   7 B     5.0000    0    10.810    8.828906    4.015871    0.000000
   8 B     5.0000    0    10.810    4.180423    4.003624   -0.000000
   9 B     5.0000    0    10.810    1.845585   -0.000001   -0.000000
  10 B     5.0000    0    10.810    4.180425   -4.003625   -0.000000
  11 B     5.0000    0    10.810    8.828908   -4.015870    0.000000

--------------------------------
INTERNAL COORDINATES (ANGSTROEM)
--------------------------------
 B      0   0   0     0.000000000000     0.00000000     0.00000000
 B      1   0   0     2.452579372012     0.00000000     0.00000000
 B      2   1   0     2.459879750108   120.40087796     0.00000000
 B      3   2   1     2.456820391235   119.96831117     0.00000000
 B      4   3   2     2.456820473286   119.76148085     0.00000000
 B      1   2   3     2.452579401548   119.50014736     0.00000000
 B      1   2   3     6.881534077165   120.24990560   180.00000000
 B      7   1   2     2.456819902850    59.88073844     0.00000000
 B      8   7   1     2.459879573305   119.96831870     0.00000000
 B      1   2   3     1.953283693412   120.24991528   180.00000000
 B     10   1   2     2.452579651375   120.24994495   180.00000000
 B      7   1   2     2.456819976951    59.88074724   180.00000000

---------------------------
INTERNAL COORDINATES (A.U.)
---------------------------
 B      0   0   0     0.000000000000     0.00000000     0.00000000
 B      1   0   0     4.634703334808     0.00000000     0.00000000
 B      2   1   0     4.648499050083   120.40087796     0.00000000
 B      3   2   1     4.642717699668   119.96831117     0.00000000
 B      4   3   2     4.642717854721   119.76148085     0.00000000
 B      1   2   3     4.634703390623   119.50014736     0.00000000
 B      1   2   3    13.004214787088   120.24990560   180.00000000
 B      7   1   2     4.642716776754    59.88073844     0.00000000
 B      8   7   1     4.648498715974   119.96831870     0.00000000
 B      1   2   3     3.691171242402   120.24991528   180.00000000
 B     10   1   2     4.634703862727   120.24994495   180.00000000
 B      7   1   2     4.642716916785    59.88074724   180.00000000



           ************************************************************
           *        Program running with 8 parallel MPI-processes     *
           *              working on a common directory               *
           ************************************************************
------------------------------------------------------------------------------
                   ___                                                        
                  /   \      - P O W E R E D   B Y -                         
                 /     \                                                     
                 |  |  |   _    _      __       _____    __    __             
                 |  |  |  | |  | |    /  \     |  _  \  |  |  /  |          
                  \  \/   | |  | |   /    \    | | | |  |  | /  /          
                 / \  \   | |__| |  /  /\  \   | |_| |  |  |/  /          
                |  |  |   |  __  | /  /__\  \  |    /   |      \           
                |  |  |   | |  | | |   __   |  |    \   |  |\   \          
                \     /   | |  | | |  |  |  |  | |\  \  |  | \   \       
                 \___/    |_|  |_| |__|  |__|  |_| \__\ |__|  \__/        
                                                                              
                      - O R C A' S   B I G   F R I E N D -                    
                                      &                                       
                       - I N T E G R A L  F E E D E R -                       
                                                                              
 v1 FN, 2020, v2 2021, v3 2022-2024                                           
------------------------------------------------------------------------------


----------------------
SHARK INTEGRAL PACKAGE
----------------------

Number of atoms                             ...     12
Number of basis functions                   ...    168
Number of shells                            ...     72
Maximum angular momentum                    ...      2
Integral batch strategy                     ... SHARK/LIBINT Hybrid
RI-J (if used) integral strategy            ... SPLIT-RIJ (Revised 2003 algorithm where possible)
Printlevel                                  ...      1
Contraction scheme used                     ... SEGMENTED contraction
Prescreening option                         ... SCHWARTZ
   Thresh                                   ... 2.500e-11
   Tcut                                     ... 2.500e-12
   Tpresel                                  ... 2.500e-12 
Coulomb Range Separation                    ... NOT USED
Exchange Range Separation                   ... NOT USED
Multipole approximations                    ... NOT USED
Finite Nucleus Model                        ... NOT USED
CABS basis                                  ... NOT available
Auxiliary Coulomb fitting basis             ... AVAILABLE
   # of basis functions in Aux-J            ...    588
   # of shells in Aux-J                     ...    180
   Maximum angular momentum in Aux-J        ...      4
Auxiliary J/K fitting basis                 ... NOT available
Auxiliary Correlation fitting basis         ... NOT available
Auxiliary 'external' fitting basis          ... NOT available

Checking pre-screening integrals            ... done (  0.0 sec) Dimension = 72
   => SHARK Basis and OBASIS are compatible. Storing Pre-screening
Shell pair information
Shell pair cut-off parameter TPreSel        ...   2.5e-12
Total number of shell pairs                 ...      2628
Shell pairs after pre-screening             ...      2114
Total number of primitive shell pairs       ...     10596
Primitive shell pairs kept                  ...      5543
          la=0 lb=0:    506 shell pairs
          la=1 lb=0:    734 shell pairs
          la=1 lb=1:    273 shell pairs
          la=2 lb=0:    318 shell pairs
[...]
      dx2y2   :     0.016329
      dxy     :     0.014832

  6 B s       :     3.436975  s :     3.436975
      pz      :     0.450648  p :     1.794493
      px      :     0.547076
      py      :     0.796769
      dz2     :     0.002867  d :     0.033063
      dxz     :     0.005596
      dyz     :     0.002235
      dx2y2   :     0.011617
      dxy     :     0.010748

  7 B s       :     3.085662  s :     3.085662
      pz      :     0.537618  p :     1.604963
      px      :     0.572817
      py      :     0.494529
      dz2     :     0.003069  d :     0.041150
      dxz     :     0.005805
      dyz     :     0.006329
      dx2y2   :     0.011437
      dxy     :     0.014510

  8 B s       :     3.396698  s :     3.396698
      pz      :     0.404378  p :     1.870936
      px      :     0.788493
      py      :     0.678066
      dz2     :     0.003257  d :     0.045358
      dxz     :     0.004957
      dyz     :     0.006684
      dx2y2   :     0.014171
      dxy     :     0.016289

  9 B s       :     3.365992  s :     3.365992
      pz      :     0.545748  p :     1.478112
      px      :     0.374250
      py      :     0.558114
      dz2     :     0.002900  d :     0.030812
      dxz     :     0.002704
      dyz     :     0.002198
      dx2y2   :     0.011116
      dxy     :     0.011893

 10 B s       :     3.015902  s :     3.015902
      pz      :     0.531465  p :     1.570486
      px      :     0.506640
      py      :     0.532380
      dz2     :     0.003615  d :     0.049711
      dxz     :     0.007893
      dyz     :     0.007025
      dx2y2   :     0.016339
      dxy     :     0.014839

 11 B s       :     3.314117  s :     3.314117
      pz      :     0.468325  p :     1.826576
      px      :     0.750833
      py      :     0.607419
      dz2     :     0.002644  d :     0.038977
      dxz     :     0.003640
      dyz     :     0.006750
      dx2y2   :     0.012827
      dxy     :     0.013117



                     *******************************
                     * LOEWDIN POPULATION ANALYSIS *
                     *******************************

----------------------
LOEWDIN ATOMIC CHARGES
----------------------
   0 B :   -0.094932
   1 B :   -0.000282
   2 B :   -0.018715
   3 B :    0.043299
   4 B :    0.007806
   5 B :    0.062814
   6 B :    0.043313
   7 B :   -0.018644
   8 B :   -0.000184
   9 B :   -0.094906
  10 B :    0.062507
  11 B :    0.007924

-------------------------------
LOEWDIN REDUCED ORBITAL CHARGES
-------------------------------
  0 B s       :     2.760041  s :     2.760041
      pz      :     0.551787  p :     2.246437
      px      :     1.009395
      py      :     0.685256
      dz2     :     0.010654  d :     0.088454
      dxz     :     0.006453
      dyz     :     0.003197
      dx2y2   :     0.033510
      dxy     :     0.034641

  1 B s       :     2.805585  s :     2.805585
      pz      :     0.407985  p :     2.087096
      px      :     0.887069
      py      :     0.792042
      dz2     :     0.012216  d :     0.107600
      dxz     :     0.010304
      dyz     :     0.011257
      dx2y2   :     0.033673
      dxy     :     0.040151

  2 B s       :     2.751856  s :     2.751856
      pz      :     0.512784  p :     2.154791
      px      :     0.746271
      py      :     0.895735
      dz2     :     0.012981  d :     0.112069
      dxz     :     0.008630
      dyz     :     0.012062
      dx2y2   :     0.035549
      dxy     :     0.042847

  3 B s       :     2.888428  s :     2.888428
      pz      :     0.455967  p :     1.987725
      px      :     0.662416
      py      :     0.869343
      dz2     :     0.008866  d :     0.080548
      dxz     :     0.010125
      dyz     :     0.004080
      dx2y2   :     0.031548
      dxy     :     0.025929

  4 B s       :     2.849127  s :     2.849127
      pz      :     0.468558  p :     2.045175
      px      :     0.909670
      py      :     0.666947
      dz2     :     0.011320  d :     0.097893
      dxz     :     0.006730
      dyz     :     0.010357
      dx2y2   :     0.031674
      dxy     :     0.037811

  5 B s       :     2.748647  s :     2.748647
      pz      :     0.494341  p :     2.062036
      px      :     0.631821
      py      :     0.935874
      dz2     :     0.013216  d :     0.126503
      dxz     :     0.012235
      dyz     :     0.013153
      dx2y2   :     0.046597
      dxy     :     0.041303

  6 B s       :     2.888510  s :     2.888510
      pz      :     0.456024  p :     1.987644
      px      :     0.662451
      py      :     0.869169
      dz2     :     0.008864  d :     0.080533
      dxz     :     0.010119
      dyz     :     0.004080
      dx2y2   :     0.031550
      dxy     :     0.025920

  7 B s       :     2.751894  s :     2.751894
      pz      :     0.512734  p :     2.154695
      px      :     0.746261
      py      :     0.895700
      dz2     :     0.012978  d :     0.112055
      dxz     :     0.008633
      dyz     :     0.012058
      dx2y2   :     0.035546
      dxy     :     0.042839

  8 B s       :     2.805661  s :     2.805661
      pz      :     0.407903  p :     2.086931
      px      :     0.887033
      py      :     0.791995
      dz2     :     0.012215  d :     0.107593
      dxz     :     0.010298
      dyz     :     0.011257
      dx2y2   :     0.033677
      dxy     :     0.040146

  9 B s       :     2.760043  s :     2.760043
      pz      :     0.551770  p :     2.246409
      px      :     1.009385
      py      :     0.685254
      dz2     :     0.010654  d :     0.088454
      dxz     :     0.006454
      dyz     :     0.003198
      dx2y2   :     0.033494
      dxy     :     0.034655

 10 B s       :     2.748455  s :     2.748455
      pz      :     0.494498  p :     2.062461
      px      :     0.632044
      py      :     0.935918
      dz2     :     0.013221  d :     0.126576
      dxz     :     0.012239
      dyz     :     0.013161
      dx2y2   :     0.046633
      dxy     :     0.041323

 11 B s       :     2.849225  s :     2.849225
      pz      :     0.468489  p :     2.044974
      px      :     0.909571
      py      :     0.666914
      dz2     :     0.011318  d :     0.097877
      dxz     :     0.006729
      dyz     :     0.010357
      dx2y2   :     0.031685
      dxy     :     0.037788



                      *****************************
                      * MAYER POPULATION ANALYSIS *
                      *****************************

  NA   - Mulliken gross atomic population
  ZA   - Total nuclear charge
  QA   - Mulliken gross atomic charge
  VA   - Mayer's total valence
  BVA  - Mayer's bonded valence
  FA   - Mayer's free valence

  ATOM       NA         ZA         QA         VA         BVA        FA
  0 B      4.8750     5.0000     0.1250     2.6773     2.6773     0.0000
  1 B      5.3130     5.0000    -0.3130     3.0077     3.0077     0.0000
  2 B      4.7313     5.0000     0.2687     3.1851     3.1851     0.0000
  3 B      5.2648     5.0000    -0.2648     3.0263     3.0263     0.0000
  4 B      5.1795     5.0000    -0.1795     3.2323     3.2323    -0.0000
  5 B      4.6364     5.0000     0.3636     3.1742     3.1742    -0.0000
  6 B      5.2645     5.0000    -0.2645     3.0264     3.0264     0.0000
  7 B      4.7318     5.0000     0.2682     3.1856     3.1856     0.0000
  8 B      5.3130     5.0000    -0.3130     3.0079     3.0079     0.0000
  9 B      4.8749     5.0000     0.1251     2.6772     2.6772    -0.0000
 10 B      4.6361     5.0000     0.3639     3.1741     3.1741     0.0000
 11 B      5.1797     5.0000    -0.1797     3.2318     3.2318     0.0000

  Mayer bond orders larger than 0.100000
B(  0-B ,  1-B ) :   1.1608 B(  0-B ,  5-B ) :   0.5271 B(  0-B ,  9-B ) :   0.6933 
B(  1-B ,  2-B ) :   1.0102 B(  1-B ,  4-B ) :   0.1180 B(  1-B ,  5-B ) :   0.5953 
B(  2-B ,  3-B ) :   1.0998 B(  2-B ,  4-B ) :   0.5108 B(  2-B ,  5-B ) :   0.4349 
B(  3-B ,  4-B ) :   1.3411 B(  3-B ,  5-B ) :   0.2707 B(  4-B ,  5-B ) :   1.1814 
B(  6-B ,  7-B ) :   1.0999 B(  6-B , 10-B ) :   0.2707 B(  6-B , 11-B ) :   1.3409 
B(  7-B ,  8-B ) :   1.0103 B(  7-B , 10-B ) :   0.4352 B(  7-B , 11-B ) :   0.5107 
B(  8-B ,  9-B ) :   1.1612 B(  8-B , 10-B ) :   0.5950 B(  8-B , 11-B ) :   0.1179 
B(  9-B , 10-B ) :   0.5270 B( 10-B , 11-B ) :   1.1813 

-------
TIMINGS
-------

Total SCF time: 0 days 0 hours 0 min 4 sec 

Total time                  ....       4.098 sec
Sum of individual times     ....       3.799 sec  ( 92.7%)

SCF preparation             ....       0.615 sec  ( 15.0%)
Fock matrix formation       ....       2.424 sec  ( 59.2%)
  Startup                   ....       0.024 sec  (  1.0% of F)
  Split-RI-J                ....       0.907 sec  ( 37.4% of F)
  XC integration            ....       1.553 sec  ( 64.0% of F)
    XC Preparation          ....       0.000 sec  (  0.0% of XC)
    Basis function eval.    ....       0.452 sec  ( 29.1% of XC)
    Density eval.           ....       0.265 sec  ( 17.1% of XC)
    XC-Functional eval.     ....       0.061 sec  (  3.9% of XC)
    XC-Potential eval.      ....       0.287 sec  ( 18.5% of XC)
Diagonalization             ....       0.000 sec  (  0.0%)
Density matrix formation    ....       0.070 sec  (  1.7%)
Total Energy calculation    ....       0.048 sec  (  1.2%)
Population analysis         ....       0.312 sec  (  7.6%)
Orbital Transformation      ....       0.051 sec  (  1.2%)
Orbital Orthonormalization  ....       0.000 sec  (  0.0%)
DIIS solution               ....       0.116 sec  (  2.8%)
SOSCF solution              ....       0.163 sec  (  4.0%)
Finished LeanSCF after   4.4 sec

Maximum memory used throughout the entire LEANSCF-calculation: 14.4 MB


-------------------------------------------------------------------------------
                          DFT DISPERSION CORRECTION                            
                                                                               
                              DFTD3 V3.1  Rev 1                                
                          USING Becke-Johnson damping                          
-------------------------------------------------------------------------------
The BP86 functional is recognized
Active option DFTDOPT                   ...         4   

molecular C6(AA) [au] = 4917.638958 


            DFT-D V3
 parameters
 s6 scaling factor         :     1.0000 
 a1 scaling factor         :     0.3946 
 s8 scaling factor         :     3.2822 
 a2 scaling factor         :     4.8516 
 ad hoc parameters k1-k3   :    16.0000     1.3333    -4.0000 

 Edisp/kcal,au: -16.651669114371  -0.026536121009 
 E6   /kcal   :  -4.894383306 
 E8   /kcal   : -11.757285808 
 % E8         :  70.607251005 

-------------------------   ----------------
Dispersion correction           -0.026536121
-------------------------   ----------------


-------------------------   --------------------
FINAL SINGLE POINT ENERGY      -297.526301018980
-------------------------   --------------------

                                *** OPTIMIZATION RUN DONE ***



           ************************************************************
           *        Program running with 8 parallel MPI-processes     *
           *              working on a common directory               *
           ************************************************************

------------------------------------------------------------------------------
                              ORCA PROPERTY CALCULATIONS
------------------------------------------------------------------------------

GBWName                                 ... double_ring_nn2.00.gbw
Number of atoms                         ...     12
Number of basis functions               ...    168
Max core memory                         ...   2500 MB

Electric properties:
Dipole moment                           ... YES
Quadrupole moment                       ...  NO
Static polarizability (Dipole/Dipole)   ...  NO
Static polarizability (Dipole/Quad.)    ...  NO
Static polarizability (Quad./Quad.)     ...  NO
Static polarizability (Velocity)        ...  NO
Static hyperpolarizability              ...  NO

Atomic electric properties:
Dipole moment                           ...  NO
Quadrupole moment                       ...  NO
Static polarizability                   ...  NO

Choice of electric origin               ... Center of mass
Position of electric origin             ...    -0.000000     0.000000     0.000000

General magnetic properties:
Magnetizability                         ...  NO

EPR properties:
g-Tensor (aka g-matrix)                 ...  NO
Zero-Field splitting spin-orbit         ...  NO
Zero-field splitting spin-spin          ...  NO
Hyperfine couplings                     ...  NO (   0 nuclei)
Quadrupole couplings                    ...  NO (   0 nuclei)
Contact density                         ...  NO (   0 nuclei)

NMR properties:
Chemical shifts                         ...  NO (   0 nuclei)
Spin-rotation constants                 ...  NO (   0 nuclei)
Spin-spin couplings                     ...  NO (   0 nuclei,    0 pairs)

Choice of magnetic origin               ... GIAO
Position of magnetic origin             ...     0.000000     0.000000     0.000000

Properties with geometric perturbations:
SCF Hessian                             ...  NO
IR spectrum                             ...  NO
VCD spectrum                            ...  NO
X-ray spectroscopy properties:
SCF XES/XAS/RIXS spectra                ...  NO

SCF SOC stabilization energy            ...  NO
Diagonal Born-Oppenheimer correction    ...  NO

-------------
DIPOLE MOMENT
-------------

Method             : SCF
Type of density    : Electron Density
Multiplicity       :   1
Irrep              :   0
Energy             :  -297.4997648979705787 Eh
Basis              : AO
                                X                 Y                 Z
Electronic contribution:      0.000399125      -0.601495466      -0.000367008
Nuclear contribution   :      0.000000000       0.000000000       0.000000000
                        -----------------------------------------
Total Dipole Moment    :      0.000399125      -0.601495466      -0.000367008
                        -----------------------------------------
Magnitude (a.u.)       :      0.601495710
Magnitude (Debye)      :      1.528880593



--------------------
Rotational spectrum 
--------------------
 
Rotational constants in cm-1:             0.095240             0.019086             0.015900 
Rotational constants in MHz :          2855.222840           572.177254           476.656882 

Dipole components along the rotational axes: 
x,y,z [a.u.] :     0.000285    -0.601496    -0.000330 
x,y,z [Debye]:     0.000725    -1.528880    -0.000838 

 

Dipole moment calculation done in   0.1 sec 

Maximum memory used throughout the entire PROP-calculation: 10.9 MB

--------------------------------
SUGGESTED CITATIONS FOR THIS RUN
--------------------------------

Below you find a list of papers that are relevant to this ORCA run
We neither can nor want to force you to cite these papers, but we appreciate if you do
You receive ORCA, which is the product of decades of hard work by many enthusiastic individuals, for free
The only thing we kindly ask in return is that you cite our papers,
We deeply appreciate it, if you show your appreciation for ORCA by not just citing the generic ORCA reference.

Please note that relegating all ORCA citations to the supporting information does *not* help us.
SI sections are not indexed - citations you put there will not count into any citation statistics
But we need these citations in order to attract the funding resources that allow us to do what we are doing

Therefore, if you are a happy ORCA user, please consider citing a few of the papers listed below in the main body of your paper

In addition to the list printed below, the program has created the file double_ring_nn2.00.bibtex that contains the list in bibtex format
You can import this file easily into all common literature databanks and citation aid programs

It goes without saying that in many instances, there are alternative algorithms to achieve similar
results as the ones you have gotten from ORCA. It is, of course, also the case that in some instances
ORCA just re-implements algorithms worked out by others. We are fully aware of that and we are also
fully appreciative of our colleagues work. Hence this citation list should not be read as indicating
that the listed papers, which are focused on our own work, are the only ones worth citing. It simply
meant to make it easier for users to cite ORCA specific papers. It is not a substitute for doing your
own literature research and citing the relevant literature in a scientifically appropriate manner.

List of essential papers. We consider these as the minimum necessary citations

  1. Neese, F.
     Software update: the ORCA program system, version 6.0
     WIRES Comput. Molec. Sci. 2025 15(1), e70019
     doi.org/10.1002/wcms.70019

List of papers to cite with high priority. The work reported in these papers was absolutely
necessary for this run to complete.
Our perspective: the developers of density functionals and basis sets usually get cited in chemistry papers
Good! But without the algorithms to do something with them, the functionals or basis sets would not do anything.
Hence, in our opinion, the algorithm design and method developments papers are equally worthy of getting cited

  1. Neese, F.
     An improvement of the resolution of the identity approximation for the formation of the Coulomb matrix
     J. Comp. Chem. 2003 24(14), 1740-1747
     doi.org/10.1002/jcc.10318
  2. Grimme, S.; Antony, J.; Ehrlich, S.; Krieg, H.
     A consistent and accurate ab initio parametrization of density functional dispersion correction (DFT-D) for the 94 elements H-Pu
     J. Chem. Phys. 2010 132 , 154104
     doi.org/10.1063/1.3382344
  3. Grimme, S.; Ehrlich, S.; Goerigk, L.
     Effect of the damping function in dispersion corrected density functional theory
     J. Comput. Chem. 2011 32(7), 1456-1465
     doi.org/10.1002/jcc.21759
  4. Neese, F.
     The SHARK Integral Generation and Digestion System
     J. Comp. Chem. 2022 44(3), 381
     doi.org/10.1002/jcc.26942

List of suggested additional citations. These are papers that are important in the 'surrounding' of 
of this run, or papers that preceded the highly important papers. If you like your results we are grateful for a citation.

  1. Neese, F.
     The ORCA program system
     WIRES Comput. Molec. Sci. 2012 2(1), 73-78
     doi.org/10.1002/wcms.81
  2. Neese, F.
     Software update: the ORCA program system, version 4.0
     WIRES Comput. Molec. Sci. 2018 8(1), 1-6
     doi.org/10.1002/wcms.1327
  3. Neese, F.; Wennmohs, F.; Becker, U.; Riplinger, C.
     The ORCA quantum chemistry program package
     J. Chem. Phys. 2020 152(22), 224108
     doi.org/10.1063/5.0004608
  4. Neese, F.
     Software update: The ORCA program system—Version 5.0
     WIRES Comput. Molec. Sci. 2022 12(1), e1606
     doi.org/10.1002/wcms.1606

List of optional additional citations

  1. Neese, F.
     Approximate second-order SCF convergence for spin unrestricted wavefunctions
     Chem. Phys. Lett. 2000 325(1-3), 93-98
     doi.org/10.1016/s0009-2614(00)00662-x

Timings for individual modules:

Sum of individual times          ...      868.427 sec (=  14.474 min)
Startup calculation              ...      126.287 sec (=   2.105 min)  14.5 %
SCF iterations                   ...      574.541 sec (=   9.576 min)  66.2 %
Property calculations            ...        0.865 sec (=   0.014 min)   0.1 %
SCF Gradient evaluation          ...      166.168 sec (=   2.769 min)  19.1 %
Geometry relaxation              ...        0.565 sec (=   0.009 min)   0.1 %
                             ****ORCA TERMINATED NORMALLY****
TOTAL RUN TIME: 0 days 0 hours 15 minutes 34 seconds 74 msec
