
                                 *****************
                                 * O   R   C   A *
                                 *****************

                                            #,                                       
                                            ###                                      
                                            ####                                     
                                            #####                                    
                                            ######                                   
                                           ########,                                 
                                     ,,################,,,,,                         
                               ,,#################################,,                 
                          ,,##########################################,,             
                       ,#########################################, ''#####,          
                    ,#############################################,,   '####,        
                  ,##################################################,,,,####,       
                ,###########''''           ''''###############################       
              ,#####''   ,,,,##########,,,,          '''####'''          '####       
            ,##' ,,,,###########################,,,                        '##       
           ' ,,###''''                  '''############,,,                           
         ,,##''                                '''############,,,,        ,,,,,,###''
      ,#''                                            '''#######################'''  
     '                                                          ''''####''''         
             ,#######,   #######,   ,#######,      ##                                
            ,#'     '#,  ##    ##  ,#'     '#,    #''#        ,####,    ,#,          
            ##       ##  ##   ,#'  ##            #'  '#       #'       ,# #          
            ##       ##  #######   ##           ,######,      #####,      #          
            '#,     ,#'  ##    ##  '#,     ,#' ,#      #,     #,   #      #          
             '#######'   ##     ##  '#######'  #'      '#     '####' #    #          



                #########################################################
                #                        -***-                          #
                #          Department of theory and spectroscopy        #
                #                                                       #
                #                      Frank Neese                      #
                #                                                       #
                #     Directorship, Architecture, Infrastructure        #
                #                    SHARK, DRIVERS                     #
                #        Core code/Algorithms in most modules           #
                #                                                       #
                #        Max Planck Institute fuer Kohlenforschung      #
                #                Kaiser Wilhelm Platz 1                 #
                #                 D-45470 Muelheim/Ruhr                 #
                #                      Germany                          #
                #                                                       #
                #                  All rights reserved                  #
                #                        -***-                          #
                #########################################################


                         Program Version 6.1.1  -  RELEASE   -
                                (GIT: $487d211c$)
                          ($2025-11-21 10:33:24 +0100$)
                                                                         
                                  - NO-DMRG VERSION -                    
                                                                         


 With contributions from (in alphabetic order):
[Max-Planck-Institut fuer Kohlenforschung]                               
  Daniel Aravena         : Magnetic Suceptibility                        
  Michael Atanasov       : Ab Initio Ligand Field Theory (pilot matlab implementation)
  Alexander A. Auer      : GIAO ZORA, VPT2 properties, NMR spectrum      
  Ute Becker             : All parallelization in ORCA, NUMFREQ, NUMCALC 
  Giovanni Bistoni       : ED, misc. LED, open-shell LED, HFLD           
  Dmytro Bykov           : pre 5.0 version of the SCF Hessian            
  Marcos Casanova-Páez   : Triplet and SCS-CIS(D). UHF-(DLPNO)-IP/EA/STEOM-CCSD. UHF-CVS-IP/STEOM-CCSD   
  Vijay G. Chilkuri      : MRCI spin determinant printing, contributions to CSF-ICE 
  Pauline Colinet        : FMM embedding                                 
  Dipayan Datta          : RHF DLPNO-CCSD density                        
  Achintya Kumar Dutta   : EOM-CC, STEOM-CC                              
  Nicolas Foglia         : Exact transition moments, OPA infrastructure, MCD improvements    
  Dmitry Ganyushin       : Spin-Orbit,Spin-Spin,Magnetic field MRCI      
  Miquel Garcia-Rates    : C-PCM and meta-GGA Hessian, CCSD/C-PCM, Gaussian charge scheme 
  Tiago L. C. Gouveia    : GS-ROHF, GS-ROCIS                             
  Yang Guo               : DLPNO-NEVPT2, F12-NEVPT2, CIM, IAO-localization        
  Andreas Hansen         : Spin unrestricted coupled pair/coupled cluster methods 
  Ingolf Harden          : AUTO-CI MPn and infrastructure                
  Benjamin Helmich-Paris : MC-RPA, TRAH-(SCF,CASSCF), AVAS, COSX integrals, SCF dyn. polar., MC-PDFT, srDFT 
  Lee Huntington         : MR-EOM, pCC                                   
  Robert Izsak           : Overlap fitted RIJCOSX, COSX-SCS-MP3, EOM     
  Riya Kayal             : Wick's Theorem for AUTO-CI, AUTO-CI UHF-CCSDT 
  Emily Kempfer          : AUTO-CI RHF CISDT and CCSDT, approximate NEVPT4
  Christian Kollmar      : KDIIS, OOCD, Brueckner-CCSD(T), CCSD density, CASPT2, CASPT2-K, improved NEVPT2 
  Axel Koslowski         : Symmetry handling                             
  Simone Kossmann        : meta-GGA functionals, TD-DFT gradient, OOMP2, (MP2 Hessian; deprecated post 5.0) 
  Lucas Lang             : DCDCAS, Hyperfine gauge corrections, ICE-SOC+SSC
  Marvin Lechner         : AUTO-CI (C++ implementation), FIC-MRCC        
  Spencer Leger          : CASSCF response                               
  Dagmar Lenk            : GEPOL surface, SMD, ORCA-2-JSON               
  Dimitrios Liakos       : Extrapolation schemes; Compound Job, Property file
  Dimitrios Manganas     : Further ROCIS development; embedding schemes. LFT, Crystal Embedding 
  Dimitrios Pantazis     : SARC Basis sets                               
  Anastasios Papadopoulos: AUTO-CI, single reference methods and gradients 
  Taras Petrenko         : pre 6.0 DFT Hessian and TD-DFT gradient,  ECA, NRVS 
  Petra Pikulova         : Analytic Raman intensities                    
  Peter Pinski           : DLPNO-MP2, DLPNO-MP2 Gradient                 
  Shashank Vittal Rao    : ES-AILFT, MagRelax                            
  Christoph Reimann      : Effective Core Potentials                     
  Marius Retegan         : Local ZFS, SOC                                
  Christoph Riplinger    : Optimizer, TS searches, QM/MM, DLPNO-CCSD(T), (RO)-DLPNO pert. Triples 
  Michael Roemelt        : Original ROCIS implementation, recursive CI coupling coefficients
  Masaaki Saitow         : Open-shell DLPNO-CCSD energy and density      
  Barbara Sandhoefer     : DKH picture change effects                    
  Yorick L. A. Schmerwitz: GMF and freeze-and-release deltaSCF, NEB S-IDPP initial path                    
  Kantharuban Sivalingam : CASSCF convergence/infrastructure, NEVPT2, NEVPT3, NEVPT4(SD), FIC-MRCI and CEPA variants
  Bernardo de Souza      : ESD, SOC TD-DFT                               
  Georgi L. Stoychev     : AutoAux, RI-MP2 NMR, DLPNO-MP2 response, X2C  
  Van Anh Tran           : RI-MP2 g-tensors                              
  Willem Van den Heuvel  : Paramagnetic NMR                              
  Zikuan Wang            : NOTCH, Electric field optimization            
  Frank Wennmohs         : Technical directorship and infrastructure     
  Hang Xu                : AUTO-CI-Response properties                   
                                                                         
[FACCTs GmbH]                                                            
  Markus Bursch, Nicolas Foglia, Miquel Garcia-Rates, Ingolf Harden, Hagen Neugebauer, Anastasios Papadopoulos, 
  Christoph Riplinger, Bernardo de Souza, Georgi L. Stoychev                                                    
                                                                 
  APM, various basis sets, CI-OPT, improved COSX, DLPNO-Multilevel,           
  DOCKER, DRACO, updates on ESD, Fragmentator, GOAT, IRC, LR-CPCM, L-BFGS, MBIS, meta-GGA TD-DFT gradient, ML-optimized integration grids, 
  MM, NACMEs, nearIR, NEB, NEB-TS, NL-DFT gradient (VV10), 2- and 3-layer-ONIOM, interface openCOSMO-RS, QMMM,   
  Crystal-QMMM, RESP, rigid body optimization, SF, symmetry and pop. for TD-DFT, various functionals, SOLVATOR                                   
                                                                         
[Other institutions]                                                     
  V. Asgeirsson          : NEB                                           
  Christoph Bannwarth    : sTDA-DFT, sTD-DFT, PBEh-3c, B97-3c, D3        
  Giovanni Bistoni       : ETS/NOCV, ADLD/ADEX, COVALED                  
  Martin Brehm           : Molecular dynamics                            
  Ronald Cardenas        : ETS/NOCV                                      
  Martina Colucci        : COVALED                                       
  Sebastian Ehlert       : rSCAN, r2SCAN, r2SCAN-3c, D4, dhf basis sets  
  Marvin Friede          : D4 for Fr, Ra, Ac-Lr                          
  Lars Goerigk           : TD-DFT with DH, B97 family of functionals     
  Stefan Grimme          : VdW corrections, initial TS optimization, DFT functionals, gCP, sTDA/sTD-DF 
  Waldemar Hujo          : DFT-NL                                        
  H. Jonsson             : NEB                                           
  Holger Kruse           : gCP                                           
  Marcel Mueller         : wB97X-3c, vDZP basis set                      
  Hagen Neugebauer       : wr2SCAN, Native XTB                           
  Gianluca Regni         : ADLD/ADEX                                     
  Tobias Risthaus        : pre 6.0 range-separated hybrid DFT and stability analysis
  Lukas Wittmann         : regularized MP2, r2SCAN double-hybrids, wr2SCAN        
                                                                         
We gratefully acknowledge several colleagues who have allowed us to      
interface, adapt or use parts of their codes:                            
  Ed Valeev, F. Pavosevic, A. Kumar             : LibInt (2-el integral package), F12 methods 
  Garnet Chan, S. Sharma, J. Yang, R. Olivares  : DMRG                   
  Ulf Ekstrom                                   : XCFun DFT Library      
  Mihaly Kallay                                 : mrcc  (arbitrary order and MRCC methods)
  Frank Weinhold                                : gennbo (NPA and NBO analysis)           
  Simon Mueller                                 : openCOSMO-RS                            
  Christopher J. Cramer and Donald G. Truhlar   : smd solvation model                     
  S Lehtola, MJT Oliveira, MAL Marques          : LibXC Library                           
  Liviu Ungur et al                             : ANISO software                          


 Your calculation uses the libint2 library for the computation of 2-el integrals
 For citations please refer to: http://libint.valeyev.net

 Your ORCA version has been built with support for libXC version: 7.0.0
 For citations please refer to: https://libxc.gitlab.io

 This ORCA versions uses:
   CBLAS   interface :  Fast vector & matrix operations
   LAPACKE interface :  Fast linear algebra routines
   SCALAPACK package :  Parallel linear algebra routines
   Shared memory     :  Shared parallel matrices
   BLAS/LAPACK       :  OpenBLAS 0.3.29  USE64BITINT DYNAMIC_ARCH NO_AFFINITY Zen SINGLE_THREADED
        Core in use  :  Zen
   Copyright (c) 2011-2014, The OpenBLAS Project


  ***********************************
  * Starting time: Thu Apr 23 15:01:44 2026
  * Host name:     vmi3233575
  * Process ID:    1289861
  * Working dir.:  /root/b12_scan/jobs/hex_antiprism_nn2.00_perturb0
  ***********************************

NOTE: MaxCore=2500 MB was set to SCF,MP2,MDCI,CIPSI,MRCI,RASCI and CIS
      => If you want to overwrite this, your respective input block should be placed after the MaxCore statement
Your calculation utilizes the atom-pairwise dispersion correction
with the Becke-Johnson damping scheme (D3BJ)


================================================================================

----- Orbital basis set information -----
Your calculation utilizes the basis: def2-SVP
   F. Weigend and R. Ahlrichs, Phys. Chem. Chem. Phys. 7, 3297 (2005).

----- AuxJ basis set information -----
Your calculation utilizes the auxiliary basis: def2/J
   H-Rn: F. Weigend, Phys. Chem. Chem. Phys. 8, 1057 (2006).
   Fr-Lr: K. Eichkorn, F. Weigend, O. Treutler, R. Ahlrichs; Theor. Chem. Acc. 97, 119 (1997).

================================================================================
                                        WARNINGS
                       Please study these warnings very carefully!
================================================================================


WARNING: Geometry Optimization
  ===> : Switching off AutoStart
         For restart on a previous wavefunction, please use MOREAD

================================================================================
                                       INPUT FILE
================================================================================
NAME = hex_antiprism_nn2.00_perturb0.inp
|  1> ! BP86 def2-SVP def2/J RI Opt TightSCF D3BJ
|  2> ! SlowConv
|  3> 
|  4> %pal nprocs 8 end
|  5> %maxcore 2500
|  6> 
|  7> %geom
|  8>   MaxIter 300
|  9> end
| 10> 
| 11> * xyz 0 1
| 12> B      2.11779566     -0.01981573      0.93563785
| 13> B      1.06520308      1.73738160      0.89381371
| 14> B     -0.85386806      1.95979415      0.73401416
| 15> B     -2.28874935     -0.09349117      0.84577335
| 16> B     -1.39822268     -1.85055075      0.65268781
| 17> B      0.93962796     -1.89937085      0.79212943
| 18> B      1.87947659      1.20584507     -0.85885465
| 19> B      0.20496952      1.99915692     -0.78684794
| 20> B     -1.68221148      1.06356991     -0.95109934
| 21> B     -1.95599081     -1.11812694     -0.80654518
| 22> B     -0.15144273     -2.13031246     -0.86345820
| 23> B      1.89885884     -1.01726919     -0.78626854
| 24> *
| 25> 
| 26>                          ****END OF INPUT****
================================================================================

                       *****************************
                       * Geometry Optimization Run *
                       *****************************

Geometry optimization settings:
Update method            Update   .... BFGS
Choice of coordinates    CoordSys .... (2022) Redundant Internals
Initial Hessian          InHess   .... Almloef's Model
Max. no of cycles        MaxIter  .... 300

Convergence Tolerances:
Energy Change            TolE     ....  5.0000e-06 Eh
Max. Gradient            TolMAXG  ....  3.0000e-04 Eh/bohr
RMS Gradient             TolRMSG  ....  1.0000e-04 Eh/bohr
Max. Displacement        TolMAXD  ....  4.0000e-03 bohr
RMS Displacement         TolRMSD  ....  2.0000e-03 bohr
Strict Convergence                .... False

------------------------------------------------------------------------------
                        ORCA OPTIMIZATION COORDINATE SETUP
------------------------------------------------------------------------------

The optimization will be done in redundant internal coordinates (2022)
Making redundant internal coordinates   ...  (2022 redundants) done
Evaluating the initial hessian          ...  (Almloef) done
Evaluating the coordinates              ...  done
Calculating the B-matrix                .... done
Calculating the G-matrix                .... done
The number of degrees of freedom        ....   73

    -----------------------------------------------------------------
                    Redundant Internal Coordinates


    -----------------------------------------------------------------
         Definition                    Initial Value    Approx d2E/dq
    -----------------------------------------------------------------
      1. B(B   1,B   0)                  2.0488         0.074534   
      2. B(B   2,B   1)                  1.9385         0.111752   
      3. B(B   4,B   3)                  1.9793         0.096206   
      4. B(B   6,B   1)                  2.0043         0.087744   
      5. B(B   7,B   2)                  1.8536         0.152680   
      6. B(B   7,B   6)                  1.8543         0.152258   
      7. B(B   7,B   1)                  1.9061         0.125891   
      8. B(B   8,B   2)                  2.0806         0.066303   
      9. B(B   9,B   4)                  1.7254         0.244516   
     10. B(B   9,B   3)                  1.9725         0.098635   
     11. B(B  10,B   9)                  2.0698         0.068987   
     12. B(B  10,B   5)                  1.9962         0.090417   
     13. B(B  10,B   4)                  1.9828         0.094979   
     14. B(B  11,B   5)                  2.0468         0.075062   
     15. B(B  11,B   0)                  2.0020         0.088521   
     16. A(B   1,B   0,B  11)          110.7070         0.232484   
     17. A(B   0,B   1,B   2)          127.4959         0.240256   
     18. A(B   0,B   1,B   6)           65.2714         0.232198   
     19. A(B   0,B   1,B   7)          111.5714         0.244390   
     20. A(B   2,B   1,B   7)           57.6408         0.259308   
     21. A(B   6,B   1,B   7)           56.5471         0.250236   
     22. A(B   2,B   1,B   6)          111.1322         0.245946   
     23. A(B   7,B   2,B   8)           64.6617         0.247083   
     24. A(B   1,B   2,B   8)          114.2974         0.236302   
     25. A(B   1,B   2,B   7)           60.3012         0.266910   
     26. A(B   4,B   3,B   9)           51.7746         0.244786   
     27. A(B   3,B   4,B   9)           63.9100         0.280324   
     28. A(B   9,B   4,B  10)           67.4471         0.279768   
     29. A(B   3,B   4,B  10)          118.8659         0.243460   
     30. A(B  10,B   5,B  11)           70.5151         0.233405   
     31. A(B   1,B   6,B   7)           59.0514         0.257327   
     32. A(B   2,B   7,B   6)          122.5902         0.279811   
     33. A(B   1,B   7,B   6)           64.4015         0.271658   
     34. A(B   1,B   7,B   2)           62.0579         0.271773   
     35. A(B   4,B   9,B  10)           62.2135         0.266450   
     36. A(B   3,B   9,B  10)          115.0961         0.233490   
     37. A(B   3,B   9,B   4)           64.3154         0.281406   
     38. A(B   5,B  10,B   9)          113.4000         0.230673   
     39. A(B   4,B  10,B   9)           50.3394         0.232260   
     40. A(B   4,B  10,B   5)           72.1322         0.241305   
     41. A(B   0,B  11,B   5)           66.5908         0.232714   
     42. D(B   2,B   1,B   0,B  11)     62.9734         0.010000   
     43. D(B   7,B   1,B   0,B  11)     -2.0601         0.010000   
     44. D(B   6,B   1,B   0,B  11)    -35.4760         0.010000   
     45. D(B   8,B   2,B   1,B   6)     17.8847         0.010000   
     46. D(B   8,B   2,B   1,B   7)     37.0549         0.010000   
     47. D(B   8,B   2,B   1,B   0)    -56.5267         0.010000   
     48. D(B   7,B   2,B   1,B   6)    -19.1701         0.010000   
     49. D(B   7,B   2,B   1,B   0)    -93.5816         0.010000   
     50. D(B  10,B   4,B   3,B   9)     40.7490         0.010000   
     51. D(B   7,B   6,B   1,B   2)     19.4179         0.010000   
     52. D(B   7,B   6,B   1,B   0)    142.1331         0.010000   
     53. D(B   2,B   7,B   1,B   6)    158.4627         0.010000   
     54. D(B   2,B   7,B   1,B   0)    121.6264         0.010000   
     55. D(B   6,B   7,B   1,B   0)    -36.8363         0.010000   
     56. D(B   6,B   7,B   1,B   2)   -158.4627         0.010000   
     57. D(B   2,B   7,B   6,B   1)    -22.6386         0.010000   
     58. D(B   6,B   7,B   2,B   8)   -119.4414         0.010000   
     59. D(B   6,B   7,B   2,B   1)     23.1378         0.010000   
     60. D(B   1,B   7,B   2,B   8)   -142.5792         0.010000   
     61. D(B  10,B   9,B   4,B   3)    141.7583         0.010000   
     62. D(B   3,B   9,B   4,B  10)   -141.7583         0.010000   
     63. D(B  10,B   9,B   3,B   4)    -37.2065         0.010000   
     64. D(B   5,B  10,B   9,B   4)    -37.5301         0.010000   
     65. D(B   5,B  10,B   9,B   3)      0.4923         0.010000   
     66. D(B   4,B  10,B   9,B   3)     38.0224         0.010000   
     67. D(B   9,B  10,B   5,B  11)   -113.9710         0.010000   
     68. D(B   4,B  10,B   5,B  11)   -143.4914         0.010000   
     69. D(B   9,B  10,B   4,B   3)    -39.4035         0.010000   
     70. D(B   5,B  10,B   4,B   9)    144.0267         0.010000   
     71. D(B   5,B  10,B   4,B   3)    104.6232         0.010000   
     72. D(B   5,B  11,B   0,B   1)   -109.3961         0.010000   
     73. D(B   0,B  11,B   5,B  10)    143.8142         0.010000   
    -----------------------------------------------------------------

Number of atoms                         .... 12
Number of degrees of freedom            .... 73


         *************************************************************
         *                GEOMETRY OPTIMIZATION CYCLE   1            *
         *************************************************************
---------------------------------
CARTESIAN COORDINATES (ANGSTROEM)
---------------------------------
  B      2.117796   -0.019816    0.935638
  B      1.065203    1.737382    0.893814
  B     -0.853868    1.959794    0.734014
  B     -2.288749   -0.093491    0.845773
  B     -1.398223   -1.850551    0.652688
  B      0.939628   -1.899371    0.792129
  B      1.879477    1.205845   -0.858855
  B      0.204970    1.999157   -0.786848
  B     -1.682211    1.063570   -0.951099
  B     -1.955991   -1.118127   -0.806545
  B     -0.151443   -2.130312   -0.863458
  B      1.898859   -1.017269   -0.786269

----------------------------
CARTESIAN COORDINATES (A.U.)
----------------------------
  NO LB      ZA    FRAG     MASS         X           Y           Z
   0 B     5.0000    0    10.810    4.002054   -0.037446    1.768099
   1 B     5.0000    0    10.810    2.012942    3.283175    1.689063
   2 B     5.0000    0    10.810   -1.613577    3.703474    1.387086
   3 B     5.0000    0    10.810   -4.325109   -0.176673    1.598280
   4 B     5.0000    0    10.810   -2.642258   -3.497034    1.233401
   5 B     5.0000    0    10.810    1.775640   -3.589291    1.496908
   6 B     5.0000    0    10.810    3.551696    2.278717   -1.623000
   7 B     5.0000    0    10.810    0.387336    3.777859   -1.486927
   8 B     5.0000    0    10.810   -3.178919    2.009856   -1.797317
   9 B     5.0000    0    10.810   -3.696287   -2.112954   -1.524150
  10 B     5.0000    0    10.810   -0.286185   -4.025707   -1.631700
  11 B     5.0000    0    10.810    3.588323   -1.922360   -1.485832

--------------------------------
INTERNAL COORDINATES (ANGSTROEM)
--------------------------------
 B      0   0   0     0.000000000000     0.00000000     0.00000000
 B      1   0   0     2.048766178635     0.00000000     0.00000000
 B      2   1   0     1.938514193644   127.49585973     0.00000000
 B      3   2   1     2.507459877699   117.96157851     7.58228643
 B      4   3   2     1.979287281677   117.71776214   345.58861223
 B      1   2   3     2.222926279716   116.84517846   359.68079707
 B      2   1   3     2.004349972424    65.27141501   261.55057364
 B      3   2   1     1.853566285758    60.30124346   266.41838692
 B      3   2   1     2.080619671565   114.29740516   303.47326657
 B      5   4   3     1.725372667977    63.90995722   269.69482807
 B      5   4   3     1.982782282991   118.86590251   310.44380290
 B      1   2   3     2.001951136252   110.70696559    62.97341551

---------------------------
INTERNAL COORDINATES (A.U.)
---------------------------
 B      0   0   0     0.000000000000     0.00000000     0.00000000
 B      1   0   0     3.871606990060     0.00000000     0.00000000
 B      2   1   0     3.663260932706   127.49585973     0.00000000
 B      3   2   1     4.738412460646   117.96157851     7.58228643
 B      4   3   2     3.740310902723   117.71776214   345.58861223
 B      1   2   3     4.200721884560   116.84517846   359.68079707
 B      2   1   3     3.787672524415    65.27141501   261.55057364
 B      3   2   1     3.502732651152    60.30124346   266.41838692
 B      3   2   1     3.931801368107   114.29740516   303.47326657
 B      5   4   3     3.260481821430    63.90995722   269.69482807
 B      5   4   3     3.746915498044   118.86590251   310.44380290
 B      1   2   3     3.783139381009   110.70696559    62.97341551

---------------------
BASIS SET INFORMATION
---------------------
There are 1 groups of distinct atoms

 Group   1 Type B   : 7s4p1d contracted to 3s2p1d pattern {511/31/1}

Atom   0B    basis set group =>   1
Atom   1B    basis set group =>   1
Atom   2B    basis set group =>   1
Atom   3B    basis set group =>   1
Atom   4B    basis set group =>   1
Atom   5B    basis set group =>   1
Atom   6B    basis set group =>   1
Atom   7B    basis set group =>   1
Atom   8B    basis set group =>   1
Atom   9B    basis set group =>   1
Atom  10B    basis set group =>   1
Atom  11B    basis set group =>   1
---------------------------------
AUXILIARY/J BASIS SET INFORMATION
---------------------------------
There are 1 groups of distinct atoms

 Group   1 Type B   : 12s5p4d2f1g contracted to 6s4p3d1f1g pattern {711111/2111/211/2/1}

Atom   0B    basis set group =>   1
Atom   1B    basis set group =>   1
Atom   2B    basis set group =>   1
Atom   3B    basis set group =>   1
Atom   4B    basis set group =>   1
Atom   5B    basis set group =>   1
Atom   6B    basis set group =>   1
Atom   7B    basis set group =>   1
Atom   8B    basis set group =>   1
Atom   9B    basis set group =>   1
Atom  10B    basis set group =>   1
Atom  11B    basis set group =>   1


           ************************************************************
           *        Program running with 8 parallel MPI-processes     *
           *              working on a common directory               *
           ************************************************************
------------------------------------------------------------------------------
                             ORCA STARTUP CALCULATIONS
                           -- RI-GTO INTEGRALS CHOSEN --
------------------------------------------------------------------------------
------------------------------------------------------------------------------
                   ___                                                        
                  /   \      - P O W E R E D   B Y -                         
                 /     \                                                     
                 |  |  |   _    _      __       _____    __    __             
                 |  |  |  | |  | |    /  \     |  _  \  |  |  /  |          
                  \  \/   | |  | |   /    \    | | | |  |  | /  /          
                 / \  \   | |__| |  /  /\  \   | |_| |  |  |/  /          
                |  |  |   |  __  | /  /__\  \  |    /   |      \           
                |  |  |   | |  | | |   __   |  |    \   |  |\   \          
                \     /   | |  | | |  |  |  |  | |\  \  |  | \   \       
                 \___/    |_|  |_| |__|  |__|  |_| \__\ |__|  \__/        
                                                                              
                      - O R C A' S   B I G   F R I E N D -                    
                                      &                                       
                       - I N T E G R A L  F E E D E R -                       
                                                                              
 v1 FN, 2020, v2 2021, v3 2022-2024                                           
------------------------------------------------------------------------------


----------------------
SHARK INTEGRAL PACKAGE
----------------------

Number of atoms                             ...     12
Number of basis functions                   ...    168
Number of shells                            ...     72
Maximum angular momentum                    ...      2
Integral batch strategy                     ... SHARK/LIBINT Hybrid
RI-J (if used) integral strategy            ... SPLIT-RIJ (Revised 2003 algorithm where possible)
Printlevel                                  ...      1
Contraction scheme used                     ... SEGMENTED contraction
Prescreening option                         ... SCHWARTZ
   Thresh                                   ... 2.500e-11
   Tcut                                     ... 2.500e-12
   Tpresel                                  ... 2.500e-12 
Coulomb Range Separation                    ... NOT USED
Exchange Range Separation                   ... NOT USED
Multipole approximations                    ... NOT USED
Finite Nucleus Model                        ... NOT USED
CABS basis                                  ... NOT available
Auxiliary Coulomb fitting basis             ... AVAILABLE
   # of basis functions in Aux-J            ...    588
   # of shells in Aux-J                     ...    180
   Maximum angular momentum in Aux-J        ...      4
Auxiliary J/K fitting basis                 ... NOT available
Auxiliary Correlation fitting basis         ... NOT available
Auxiliary 'external' fitting basis          ... NOT available

Checking pre-screening integrals            ... done (  0.0 sec) Dimension = 72
   => SHARK Basis and OBASIS are compatible. Storing Pre-screening
Shell pair information
Shell pair cut-off parameter TPreSel        ...   2.5e-12
Total number of shell pairs                 ...      2628
Shell pairs after pre-screening             ...      2573
Total number of primitive shell pairs       ...     10596
Primitive shell pairs kept                  ...      7586
          la=0 lb=0:    623 shell pairs
          la=1 lb=0:    864 shell pairs
          la=1 lb=1:    300 shell pairs
          la=2 lb=0:    420 shell pairs
          la=2 lb=1:    288 shell pairs
          la=2 lb=2:     78 shell pairs

Checking whether 4 symmetric matrices of dimension 168 fit in memory
:Max Core in MB      =   2500.00
 MB in use           =      6.84
 MB left             =   2493.16
 MB needed           =      0.43
 Data fit in memory  = YES
Calculating RI/J V-Matrix + Cholesky decomp.... done (  0.0 sec)
Calculating Nuclear repulsion               ... done (  0.0 sec) ENN=    296.706203385192 Eh

Diagonalization of the overlap matrix:
Smallest eigenvalue                        ... 7.667e-04
Time for diagonalization                   ...    0.004 sec
Threshold for overlap eigenvalues          ... 1.000e-07
Number of eigenvalues below threshold      ... 0
Time for construction of square roots      ...    0.002 sec
Total time needed                          ...    0.009 sec

-------------------
DFT GRID GENERATION
-------------------

General Integration Accuracy     IntAcc      ... 4.388
Radial Grid Type                 RadialGrid  ... OptM3 with GC (2021)
Angular Grid (max. ang.)         AngularGrid ... 4 (Lebedev-302)
Angular grid pruning method      GridPruning ... 4 (adaptive)
Weight generation scheme         WeightScheme... mBecke (2022)
Basis function cutoff            BFCut       ... 1.0000e-11
Integration weight cutoff        WCut        ... 1.0000e-14
Partially contracted basis set               ... off
Rotationally invariant grid construction     ... off
Angular grids for H and He will be reduced by one unit

Total number of grid points                  ...    71791
Total number of batches                      ...     1127
Average number of points per batch           ...       63
Average number of grid points per atom       ...     5983
Grids setup in   0.7 sec
Initializing property integral containers    ... done (  0.0 sec)

SHARK setup successfully completed in   0.9 seconds

Maximum memory used throughout the entire STARTUP-calculation: 19.9 MB


           ************************************************************
           *        Program running with 8 parallel MPI-processes     *
           *              working on a common directory               *
           ************************************************************
-------------------------------------------------------------------------------
                                 ORCA GUESS
                   Start orbitals & Density for SCF / CASSCF
-------------------------------------------------------------------------------

------------
SCF SETTINGS
------------
Hamiltonian:
 Density Functional     Method          .... DFT(GTOs)
 Exchange Functional    Exchange        .... B88
   X-Alpha parameter    XAlpha          ....  0.666667
   Becke's b parameter  XBeta           ....  0.004200
 Correlation Functional Correlation     .... P86
 LDA part of GGA corr.  LDAOpt          .... PW91-LDA
 Gradients option       PostSCFGGA      .... off
   NL short-range parameter             ....  4.400000
 RI-approximation to the Coulomb term is turned on
   Number of AuxJ basis functions       .... 588


General Settings:
 Integral files         IntName         .... hex_antiprism_nn2.00_perturb0
 Hartree-Fock type      HFTyp           .... RHF
 Total Charge           Charge          ....    0
 Multiplicity           Mult            ....    1
 Number of Electrons    NEL             ....   60
 Basis Dimension        Dim             ....  168
 Nuclear Repulsion      ENuc            ....    296.7062033852 Eh

Convergence Acceleration:
 AO-DIIS                CNVDIIS         .... on
   Start iteration      DIISMaxIt       ....     0
   Startup error        DIISStart       ....  0.200000
   # of expansion vecs  DIISMaxEq       ....     5
   Bias factor          DIISBfac        ....   1.050
   Max. coefficient     DIISMaxC        ....  10.000
 MO-DIIS                CNVKDIIS        .... off
 Trust-Rad. Augm. Hess. CNVTRAH         .... auto
   Auto Start mean grad. ratio tolernc. ....  1.125000
   Auto Start start iteration           ....    50
   Auto Start num. interpolation iter.  ....    10
   Max. Number of Micro iterations      ....    24
   Max. Number of Macro iterations      .... Maxiter - #DIIS iter
   Number of Davidson start vectors     ....     2
   Converg. threshold    (grad. norm)   ....   1.000e-05
   Grad. Scal. Fac. for Micro threshold ....   0.100
   Minimum threshold for Micro iter.    ....   1.000e-02
   NR start threshold (gradient norm)   ....   1.000e-04
   Initial trust radius                 ....   0.400
   Minimum AH scaling param. (alpha)    ....   1.000
   Maximum AH scaling param. (alpha)    .... 1000.000
   Quad. conv. algorithm                .... NR
   White noise on init. David. guess    .... on
   Maximum white noise                  ....   0.010
   Pseudo random numbers                .... off
   Inactive MOs                         .... canonical
   Orbital update algorithm             .... Taylor
   Preconditioner                       .... Diag
   Full preconditioner red. dimension   ....   250
 SOSCF                 CNVSOSCF           .... on
   Start iteration     SOSCFMaxIt         ....   150
   Startup grad/error  SOSCFStart         ....  0.001000
   Hessian update      SOSCFHessUp        .... L-BFGS
   Autom. constraints  SOSCFAutoConstrain .... off
 Level Shifting         CNVShift        .... on
   Level shift para.    LevelShift      ....    0.2500
   Turn off err/grad.   ShiftErr        ....    0.0000
 Zerner damping         CNVZerner       .... off
 Static damping         CNVDamp         .... on
   Fraction old density DampFac         ....    0.8500
   Max. Damping (<1)    DampMax         ....    0.9800
   Min. Damping (>=0)   DampMin         ....    0.0000
   Turn off err/grad.   DampErr         ....    0.0300

SCF Procedure:
 Maximum # iterations   MaxIter         ....   125
 SCF integral mode      SCFMode         .... Direct
   Integral package                     .... SHARK and LIBINT hybrid scheme
 Reset frequency        DirectResetFreq ....    20
 Integral Threshold     Thresh          ....  2.500e-11 Eh
 Primitive CutOff       TCut            ....  2.500e-12 Eh

Convergence Tolerance:
 Convergence Check Mode ConvCheckMode   .... Total+1el-Energy
 Convergence forced     ConvForced      .... 0
 Energy Change          TolE            ....  1.000e-08 Eh
 1-El. energy change                    ....  1.000e-05 Eh
 Orbital Gradient       TolG            ....  1.000e-05
 Orbital Rotation angle TolX            ....  1.000e-05
 DIIS Error             TolErr          ....  5.000e-07

------------------------------
INITIAL GUESS: MODEL POTENTIAL
------------------------------
Loading Hartree-Fock densities                     ... done
Calculating cut-offs                               ... done
Initializing the effective Hamiltonian             ... done
Setting up the integral package (SHARK)            ... done
Starting the Coulomb interaction                   ... done (   0.0 sec)
Making the grid                                    ... done (   0.2 sec)
Mapping shells                                     ... done
Starting the XC term evaluation                    ... done (   0.0 sec)
  promolecular density results
     # of electrons  =     59.997837717
     EX              =    -45.078552950
     EC              =     -1.899877338
     EX+EC           =    -46.978430288
Transforming the Hamiltonian                       ... done (   0.0 sec)
Diagonalizing the Hamiltonian                      ... done (   0.0 sec)
Back transforming the eigenvectors                 ... done (   0.0 sec)
Now organizing SCF variables                       ... done
                      ------------------
                      INITIAL GUESS DONE (   0.3 sec)
                      ------------------
             **** ENERGY FILE WAS UPDATED (hex_antiprism_nn2.00_perturb0.en.tmp) ****
Finished Guess after   0.8 sec
Maximum memory used throughout the entire GUESS-calculation: 9.6 MB


           ************************************************************
           *        Program running with 8 parallel MPI-processes     *
           *              working on a common directory               *
           ************************************************************

-------------------------------------------------------------------------------------------
                                      ORCA LEAN-SCF
                              memory conserving SCF solver
-------------------------------------------------------------------------------------------

----------------------------------------D-I-I-S--------------------------------------------
Iteration    Energy (Eh)           Delta-E    RMSDP     MaxDP     DIISErr   Damp  Time(sec)
-------------------------------------------------------------------------------------------
               ***  Starting incremental Fock matrix formation  ***
    1    -296.8320668823953383     0.00e+00  5.04e-03  3.92e-02  7.54e-02  0.850   0.3
Warning: op=0 Small HOMO/LUMO gap (  -0.034) - skipping pre-diagonalization
         Will do a full diagonalization
    2    -296.8979404721842457    -6.59e-02  6.58e-03  3.72e-02  5.58e-02  0.850   0.3
                               ***Turning on AO-DIIS***
    3    -296.9334574872867734    -3.55e-02  3.85e-03  2.45e-02  3.48e-02  0.850   0.3
    4    -296.9478314323366703    -1.44e-02  2.38e-03  1.38e-02  2.40e-02  0.850   0.3
    5    -296.9586459356860360    -1.08e-02  1.10e-02  5.34e-02  1.78e-02  0.000   0.3
    6    -297.0057585580805153    -4.71e-02  3.85e-03  3.33e-02  1.41e-02  0.000   0.3
    7    -297.0130773506396054    -7.32e-03  1.90e-03  1.73e-02  5.70e-03  0.000   0.4
    8    -297.0144263017465391    -1.35e-03  1.15e-03  6.53e-03  3.60e-03  0.000   0.4
    9    -297.0149868351238638    -5.61e-04  7.30e-04  4.59e-03  1.52e-03  0.000   0.4
                              *** Initializing SOSCF ***
---------------------------------------S-O-S-C-F--------------------------------------
Iteration    Energy (Eh)           Delta-E    RMSDP     MaxDP     MaxGrad    Time(sec)
--------------------------------------------------------------------------------------
   10    -297.0151945889624585    -2.08e-04  5.19e-04  2.40e-03  7.00e-04     0.3
               *** Restarting incremental Fock matrix formation ***
   11    -297.0152936032028492    -9.90e-05  8.80e-04  3.79e-03  8.17e-04     0.3
   12    -297.0153671604415422    -7.36e-05  2.51e-03  1.28e-02  1.03e-03     0.3
   13    -297.0154972972425185    -1.30e-04  1.19e-03  5.49e-03  1.05e-03     0.3
   14    -297.0154792535587376     1.80e-05  6.74e-04  4.40e-03  1.44e-03     0.3
   15    -297.0155847289439635    -1.05e-04  8.85e-04  6.31e-03  5.93e-04     0.3
   16    -297.0155831676222533     1.56e-06  9.34e-04  4.42e-03  9.95e-04     0.4
   17    -297.0156561543213911    -7.30e-05  1.34e-03  5.81e-03  4.55e-04     0.3
   18    -297.0156514658142441     4.69e-06  6.26e-04  3.59e-03  5.99e-04     0.3
   19    -297.0156957562222715    -4.43e-05  8.50e-04  4.66e-03  2.94e-04     0.3
   20    -297.0156827741685674     1.30e-05  4.70e-04  2.66e-03  6.58e-04     0.3
   21    -297.0157168200871638    -3.40e-05  4.98e-04  2.45e-03  2.00e-04     0.3
   22    -297.0157182169224370    -1.40e-06  2.87e-04  1.30e-03  2.27e-04     0.3
   23    -297.0157248582000875    -6.64e-06  2.95e-04  1.43e-03  1.18e-04     0.3
   24    -297.0157260761700400    -1.22e-06  1.82e-04  8.26e-04  1.33e-04     0.4
   25    -297.0157276586475064    -1.58e-06  1.09e-04  5.97e-04  5.52e-05     0.3
   26    -297.0157275520830353     1.07e-07  5.18e-05  2.85e-04  8.19e-05     0.3
   27    -297.0157282136663071    -6.62e-07  2.73e-05  1.59e-04  1.84e-05     0.3
   28    -297.0157282428264125    -2.92e-08  1.86e-05  1.15e-04  2.07e-05     0.3
   29    -297.0157283003482007    -5.75e-08  1.35e-05  8.38e-05  9.54e-06     0.3
   30    -297.0157283113836684    -1.10e-08  9.05e-06  3.55e-05  5.17e-06     0.3
               *** Restarting incremental Fock matrix formation ***
   31    -297.0157283068901961     4.49e-09  3.29e-06  2.12e-05  4.99e-06     0.3
                 **** Energy Check signals convergence ****

               *****************************************************
               *                     SUCCESS                       *
               *           SCF CONVERGED AFTER  31 CYCLES          *
               *****************************************************

             **** ENERGY FILE WAS UPDATED (hex_antiprism_nn2.00_perturb0.en.tmp) ****

----------------
TOTAL SCF ENERGY
----------------

Total Energy       :       -297.01572831065266 Eh           -8082.20886 eV

Components:
Nuclear Repulsion  :        296.70620338519200 Eh            8073.78626 eV
Electronic Energy  :       -593.72193169584466 Eh          -16155.99512 eV
One Electron Energy:       -981.18182124433349 Eh          -26699.31472 eV
Two Electron Energy:        387.45988954848889 Eh           10543.31961 eV

Virial components:
Potential Energy   :       -587.25974226920425 Eh          -15980.15000 eV
Kinetic Energy     :        290.24401395855165 Eh            7897.94114 eV
Virial Ratio       :          2.02333110771087

DFT components:
N(Alpha)           :       29.999991547313 electrons
N(Beta)            :       29.999991547313 electrons
N(Total)           :       59.999983094625 electrons
E(X)               :      -45.212499586728 Eh       
E(C)               :       -1.932810453271 Eh       
E(XC)              :      -47.145310039999 Eh       

---------------
SCF CONVERGENCE
---------------

  Last Energy change         ...   -4.4935e-09  Tolerance :   1.0000e-08
  Last MAX-Density change    ...    2.1222e-05  Tolerance :   1.0000e-07
  Last RMS-Density change    ...    3.2921e-06  Tolerance :   5.0000e-09
  Last DIIS Error            ...    7.0005e-04  Tolerance :   5.0000e-07
  Last Orbital Gradient      ...    4.9933e-06  Tolerance :   1.0000e-05
  Last Orbital Rotation      ...    1.7402e-05  Tolerance :   1.0000e-05


----------------
ORBITAL ENERGIES
----------------

  NO   OCC          E(Eh)            E(eV) 
   0   2.0000      -6.661244      -181.2617 
   1   2.0000      -6.660997      -181.2549 
   2   2.0000      -6.654362      -181.0744 
   3   2.0000      -6.653972      -181.0638 
   4   2.0000      -6.652348      -181.0196 
   5   2.0000      -6.649694      -180.9474 
   6   2.0000      -6.642841      -180.7609 
   7   2.0000      -6.641384      -180.7212 
   8   2.0000      -6.634178      -180.5252 
   9   2.0000      -6.628652      -180.3748 
  10   2.0000      -6.627086      -180.3322 
  11   2.0000      -6.621371      -180.1767 
  12   2.0000      -0.595128       -16.1942 
  13   2.0000      -0.567584       -15.4448 
  14   2.0000      -0.533698       -14.5227 
  15   2.0000      -0.466059       -12.6821 
  16   2.0000      -0.456314       -12.4169 
  17   2.0000      -0.397694       -10.8218 
  18   2.0000      -0.369133       -10.0446 
  19   2.0000      -0.353524        -9.6199 
  20   2.0000      -0.344479        -9.3738 
  21   2.0000      -0.332873        -9.0579 
  22   2.0000      -0.286133        -7.7861 
  23   2.0000      -0.284534        -7.7426 
  24   2.0000      -0.272509        -7.4153 
  25   2.0000      -0.251491        -6.8434 
  26   2.0000      -0.243612        -6.6290 
  27   2.0000      -0.223349        -6.0776 
  28   2.0000      -0.220881        -6.0105 
  29   2.0000      -0.207115        -5.6359 
  30   0.0000      -0.206918        -5.6305 
  31   0.0000      -0.195183        -5.3112 
  32   0.0000      -0.179815        -4.8930 
  33   0.0000      -0.173464        -4.7202 
  34   0.0000      -0.168484        -4.5847 
  35   0.0000      -0.156552        -4.2600 
  36   0.0000      -0.142970        -3.8904 
  37   0.0000      -0.120697        -3.2843 
  38   0.0000      -0.112298        -3.0558 
  39   0.0000      -0.103354        -2.8124 
  40   0.0000      -0.097206        -2.6451 
*Only the first 10 virtual orbitals were printed.

                    ********************************
                    * MULLIKEN POPULATION ANALYSIS *
                    ********************************

-----------------------
MULLIKEN ATOMIC CHARGES
-----------------------
   0 B :   -0.004349
   1 B :   -0.014867
   2 B :    0.009062
   3 B :    0.003986
   4 B :   -0.017873
   5 B :    0.028907
   6 B :   -0.014418
   7 B :    0.022815
   8 B :   -0.038262
   9 B :    0.035995
  10 B :   -0.021064
  11 B :    0.010069
Sum of atomic charges:    0.0000000

--------------------------------
MULLIKEN REDUCED ORBITAL CHARGES
--------------------------------
  0 B s       :     3.322657  s :     3.322657
      pz      :     0.513407  p :     1.655203
      px      :     0.534148
      py      :     0.607648
      dz2     :     0.007596  d :     0.026489
      dxz     :     0.003596
      dyz     :     0.006561
      dx2y2   :     0.003720
      dxy     :     0.005017

  1 B s       :     3.256498  s :     3.256498
      pz      :     0.595067  p :     1.727275
      px      :     0.589876
      py      :     0.542333
      dz2     :     0.009889  d :     0.031095
      dxz     :     0.006519
      dyz     :     0.005143
      dx2y2   :     0.004108
      dxy     :     0.005435

  2 B s       :     3.286181  s :     3.286181
      pz      :     0.546646  p :     1.675310
      px      :     0.592931
      py      :     0.535733
      dz2     :     0.008277  d :     0.029447
      dxz     :     0.007787
      dyz     :     0.004183
      dx2y2   :     0.004212
      dxy     :     0.004988

  3 B s       :     3.484516  s :     3.484516
      pz      :     0.524513  p :     1.484498
      px      :     0.422276
      py      :     0.537709
      dz2     :     0.007436  d :     0.027000
      dxz     :     0.004018
      dyz     :     0.006880
      dx2y2   :     0.003743
      dxy     :     0.004923

  4 B s       :     3.290120  s :     3.290120
      pz      :     0.566203  p :     1.692656
      px      :     0.545736
      py      :     0.580717
      dz2     :     0.009861  d :     0.035097
      dxz     :     0.006606
      dyz     :     0.007221
      dx2y2   :     0.006278
      dxy     :     0.005132

  5 B s       :     3.374455  s :     3.374455
      pz      :     0.470587  p :     1.570180
      px      :     0.547299
      py      :     0.552294
      dz2     :     0.007982  d :     0.026458
      dxz     :     0.005056
      dyz     :     0.004448
      dx2y2   :     0.005010
      dxy     :     0.003963

  6 B s       :     3.372009  s :     3.372009
      pz      :     0.544473  p :     1.614935
      px      :     0.503988
      py      :     0.566474
      dz2     :     0.008102  d :     0.027474
      dxz     :     0.005187
      dyz     :     0.004189
      dx2y2   :     0.005386
      dxy     :     0.004609

  7 B s       :     3.069631  s :     3.069631
      pz      :     0.586504  p :     1.872387
      px      :     0.663661
      py      :     0.622222
      dz2     :     0.009446  d :     0.035167
      dxz     :     0.009941
      dyz     :     0.005277
      dx2y2   :     0.005702
      dxy     :     0.004801

  8 B s       :     3.509329  s :     3.509329
      pz      :     0.529615  p :     1.504609
      px      :     0.458043
      py      :     0.516951
      dz2     :     0.007774  d :     0.024323
      dxz     :     0.003658
      dyz     :     0.003906
      dx2y2   :     0.004354
      dxy     :     0.004630

  9 B s       :     3.163927  s :     3.163927
      pz      :     0.549787  p :     1.766268
      px      :     0.624418
      py      :     0.592062
      dz2     :     0.009315  d :     0.033810
      dxz     :     0.006626
      dyz     :     0.007818
      dx2y2   :     0.005807
      dxy     :     0.004243

 10 B s       :     3.418298  s :     3.418298
      pz      :     0.510979  p :     1.573802
      px      :     0.607234
      py      :     0.455589
      dz2     :     0.008787  d :     0.028964
      dxz     :     0.006386
      dyz     :     0.004097
      dx2y2   :     0.005220
      dxy     :     0.004474

 11 B s       :     3.393657  s :     3.393657
      pz      :     0.419776  p :     1.570461
      px      :     0.560095
      py      :     0.590591
      dz2     :     0.007650  d :     0.025813
      dxz     :     0.004473
      dyz     :     0.004963
      dx2y2   :     0.004583
      dxy     :     0.004144



                     *******************************
                     * LOEWDIN POPULATION ANALYSIS *
                     *******************************

----------------------
LOEWDIN ATOMIC CHARGES
----------------------
   0 B :    0.025075
   1 B :   -0.028308
   2 B :    0.006663
   3 B :    0.053860
   4 B :   -0.066446
   5 B :    0.040503
   6 B :   -0.000536
   7 B :   -0.047186
   8 B :    0.036120
   9 B :   -0.051125
  10 B :    0.010282
  11 B :    0.021099

-------------------------------
LOEWDIN REDUCED ORBITAL CHARGES
-------------------------------
  0 B s       :     2.986756  s :     2.986756
      pz      :     0.649694  p :     1.929839
      px      :     0.567186
      py      :     0.712959
      dz2     :     0.017573  d :     0.058330
      dxz     :     0.004985
      dyz     :     0.015621
      dx2y2   :     0.006562
      dxy     :     0.013590

  1 B s       :     2.923598  s :     2.923598
      pz      :     0.737744  p :     2.030435
      px      :     0.693820
      py      :     0.598870
      dz2     :     0.026066  d :     0.074275
      dxz     :     0.015195
      dyz     :     0.007617
      dx2y2   :     0.012650
      dxy     :     0.012746

  2 B s       :     2.952432  s :     2.952432
      pz      :     0.701470  p :     1.972330
      px      :     0.697092
      py      :     0.573769
      dz2     :     0.019444  d :     0.068575
      dxz     :     0.019625
      dyz     :     0.008201
      dx2y2   :     0.012254
      dxy     :     0.009052

  3 B s       :     3.096377  s :     3.096377
      pz      :     0.678411  p :     1.791954
      px      :     0.475493
      py      :     0.638050
      dz2     :     0.015579  d :     0.057810
      dxz     :     0.006527
      dyz     :     0.016262
      dx2y2   :     0.007701
      dxy     :     0.011741

  4 B s       :     2.936794  s :     2.936794
      pz      :     0.763558  p :     2.047175
      px      :     0.628541
      py      :     0.655076
      dz2     :     0.023178  d :     0.082477
      dxz     :     0.017040
      dyz     :     0.015756
      dx2y2   :     0.014640
      dxy     :     0.011863

  5 B s       :     3.049084  s :     3.049084
      pz      :     0.632838  p :     1.854209
      px      :     0.624979
      py      :     0.596391
      dz2     :     0.016816  d :     0.056204
      dxz     :     0.012674
      dyz     :     0.008463
      dx2y2   :     0.010531
      dxy     :     0.007720

  6 B s       :     2.990109  s :     2.990109
      pz      :     0.681828  p :     1.949043
      px      :     0.616738
      py      :     0.650478
      dz2     :     0.018929  d :     0.061384
      dxz     :     0.010130
      dyz     :     0.007758
      dx2y2   :     0.014310
      dxy     :     0.010256

  7 B s       :     2.824855  s :     2.824855
      pz      :     0.729022  p :     2.135263
      px      :     0.803839
      py      :     0.602402
      dz2     :     0.026076  d :     0.087069
      dxz     :     0.025888
      dyz     :     0.007738
      dx2y2   :     0.012687
      dxy     :     0.014680

  8 B s       :     3.125064  s :     3.125064
      pz      :     0.660493  p :     1.788815
      px      :     0.526890
      py      :     0.601432
      dz2     :     0.015892  d :     0.050000
      dxz     :     0.006380
      dyz     :     0.007326
      dx2y2   :     0.010104
      dxy     :     0.010298

  9 B s       :     2.877347  s :     2.877347
      pz      :     0.722494  p :     2.091193
      px      :     0.682358
      py      :     0.686342
      dz2     :     0.024479  d :     0.082585
      dxz     :     0.013363
      dyz     :     0.020976
      dx2y2   :     0.014203
      dxy     :     0.009564

 10 B s       :     3.037729  s :     3.037729
      pz      :     0.695860  p :     1.889334
      px      :     0.702354
      py      :     0.491119
      dz2     :     0.018291  d :     0.062656
      dxz     :     0.016801
      dyz     :     0.005929
      dx2y2   :     0.010527
      dxy     :     0.011107

 11 B s       :     3.056314  s :     3.056314
      pz      :     0.573511  p :     1.866551
      px      :     0.611291
      py      :     0.681749
      dz2     :     0.017223  d :     0.056036
      dxz     :     0.008985
      dyz     :     0.012341
      dx2y2   :     0.009700
      dxy     :     0.007788



                      *****************************
                      * MAYER POPULATION ANALYSIS *
                      *****************************

  NA   - Mulliken gross atomic population
  ZA   - Total nuclear charge
  QA   - Mulliken gross atomic charge
  VA   - Mayer's total valence
  BVA  - Mayer's bonded valence
  FA   - Mayer's free valence

  ATOM       NA         ZA         QA         VA         BVA        FA
  0 B      5.0043     5.0000    -0.0043     3.2196     3.2196     0.0000
  1 B      5.0149     5.0000    -0.0149     3.2394     3.2394    -0.0000
  2 B      4.9909     5.0000     0.0091     3.2485     3.2485    -0.0000
  3 B      4.9960     5.0000     0.0040     2.9473     2.9473     0.0000
  4 B      5.0179     5.0000    -0.0179     3.1110     3.1110    -0.0000
  5 B      4.9711     5.0000     0.0289     3.0539     3.0539     0.0000
  6 B      5.0144     5.0000    -0.0144     3.1088     3.1088     0.0000
  7 B      4.9772     5.0000     0.0228     3.3880     3.3880    -0.0000
  8 B      5.0383     5.0000    -0.0383     2.8967     2.8967     0.0000
  9 B      4.9640     5.0000     0.0360     3.2210     3.2210    -0.0000
 10 B      5.0211     5.0000    -0.0211     3.0686     3.0686    -0.0000
 11 B      4.9899     5.0000     0.0101     2.9857     2.9857     0.0000

  Mayer bond orders larger than 0.100000
B(  0-B ,  1-B ) :   0.7512 B(  0-B ,  5-B ) :   0.7224 B(  0-B ,  6-B ) :   0.5112 
B(  0-B ,  7-B ) :   0.1425 B(  0-B , 10-B ) :   0.1591 B(  0-B , 11-B ) :   0.6700 
B(  1-B ,  2-B ) :   0.8715 B(  1-B ,  6-B ) :   0.4933 B(  1-B ,  7-B ) :   0.5963 
B(  1-B ,  8-B ) :   0.1672 B(  1-B , 11-B ) :   0.1624 B(  2-B ,  3-B ) :   0.4226 
B(  2-B ,  6-B ) :   0.1921 B(  2-B ,  7-B ) :   0.7684 B(  2-B ,  8-B ) :   0.5781 
B(  2-B ,  9-B ) :   0.1143 B(  3-B ,  4-B ) :   0.8553 B(  3-B ,  8-B ) :   0.4301 
B(  3-B ,  9-B ) :   0.6222 B(  3-B , 10-B ) :   0.2826 B(  4-B ,  5-B ) :   0.3787 
B(  4-B ,  8-B ) :   0.2340 B(  4-B ,  9-B ) :   0.7826 B(  4-B , 10-B ) :   0.5276 
B(  4-B , 11-B ) :   0.1064 B(  5-B ,  6-B ) :   0.1610 B(  5-B ,  9-B ) :   0.1313 
B(  5-B , 10-B ) :   0.7128 B(  5-B , 11-B ) :   0.6577 B(  6-B ,  7-B ) :   0.9344 
B(  6-B , 11-B ) :   0.6010 B(  7-B ,  8-B ) :   0.5951 B(  8-B ,  9-B ) :   0.5771 
B(  9-B , 10-B ) :   0.7649 B( 10-B , 11-B ) :   0.4312 

-------
TIMINGS
-------

Total SCF time: 0 days 0 hours 0 min 10 sec 

Total time                  ....      10.716 sec
Sum of individual times     ....      10.314 sec  ( 96.3%)

SCF preparation             ....       0.488 sec  (  4.6%)
Fock matrix formation       ....       8.682 sec  ( 81.0%)
  Startup                   ....       0.023 sec  (  0.3% of F)
  Split-RI-J                ....       2.885 sec  ( 33.2% of F)
  XC integration            ....       5.521 sec  ( 63.6% of F)
    XC Preparation          ....       0.000 sec  (  0.0% of XC)
    Basis function eval.    ....       1.331 sec  ( 24.1% of XC)
    Density eval.           ....       0.889 sec  ( 16.1% of XC)
    XC-Functional eval.     ....       0.177 sec  (  3.2% of XC)
    XC-Potential eval.      ....       1.067 sec  ( 19.3% of XC)
Diagonalization             ....       0.000 sec  (  0.0%)
Density matrix formation    ....       0.161 sec  (  1.5%)
Total Energy calculation    ....       0.086 sec  (  0.8%)
Population analysis         ....       0.029 sec  (  0.3%)
Orbital Transformation      ....       0.040 sec  (  0.4%)
Orbital Orthonormalization  ....       0.000 sec  (  0.0%)
DIIS solution               ....       0.273 sec  (  2.5%)
SOSCF solution              ....       0.557 sec  (  5.2%)
Finished LeanSCF after  10.7 sec

Maximum memory used throughout the entire LEANSCF-calculation: 10.1 MB


-------------------------------------------------------------------------------
                          DFT DISPERSION CORRECTION                            
                                                                               
                              DFTD3 V3.1  Rev 1                                
                          USING Becke-Johnson damping                          
-------------------------------------------------------------------------------
The BP86 functional is recognized
Active option DFTDOPT                   ...         4   

molecular C6(AA) [au] = 7409.524178 


            DFT-D V3
 parameters
 s6 scaling factor         :     1.0000 
 a1 scaling factor         :     0.3946 
 s8 scaling factor         :     3.2822 
 a2 scaling factor         :     4.8516 
 ad hoc parameters k1-k3   :    16.0000     1.3333    -4.0000 

 Edisp/kcal,au: -31.103099567805  -0.049565938899 
 E6   /kcal   :  -9.033342437 
 E8   /kcal   : -22.069757131 
 % E8         :  70.956777420 

-------------------------   ----------------
Dispersion correction           -0.049565939
-------------------------   ----------------


-------------------------   --------------------
FINAL SINGLE POINT ENERGY      -297.065294249552
-------------------------   --------------------



           ************************************************************
           *        Program running with 8 parallel MPI-processes     *
           *              working on a common directory               *
           ************************************************************
------------------------------------------------------------------------------
                         ORCA SCF GRADIENT CALCULATION
------------------------------------------------------------------------------

Nuc. rep. gradient        (SHARK) ... done (  0.0 sec)
HCore & Overlap gradient  (SHARK) ... done (  0.0 sec)
Split-RIJ-J gradient      (SHARK) ... done (  0.3 sec)
XC gradient                       ... done (  0.8 sec)
Dispersion correction             ... done (  0.1 sec)

-------------------
DISPERSION GRADIENT
-------------------

   1   B   :   -0.003598302   -0.000178810   -0.006062861
   2   B   :    0.000007605   -0.003312295   -0.004889127
   3   B   :    0.001612885   -0.000839632   -0.002857575
   4   B   :    0.003281832   -0.006388847   -0.007370501
   5   B   :    0.000986614    0.004401046   -0.003860486
   6   B   :    0.001025857    0.003721298   -0.007712808
   7   B   :   -0.000605709   -0.001435655    0.004182361
   8   B   :   -0.001072972   -0.000758535    0.002467919
   9   B   :    0.001150358   -0.001872010    0.005057772
  10   B   :    0.002595709    0.003482767    0.005563542
  11   B   :   -0.003126010    0.002307898    0.006378698
  12   B   :   -0.002257867    0.000872775    0.009103067

Difference to translation invariance:
           :    0.0000000000   -0.0000000000    0.0000000000

Difference to rotation invariance:
           :    0.0000000000   -0.0000000000   -0.0000000000

Norm of the Dispersion gradient    ...    0.0237509822
RMS gradient                       ...    0.0039584970
MAX gradient                       ...    0.0091030665

------------------
CARTESIAN GRADIENT
------------------

   1   B   :    0.054267585   -0.000770925    0.060460330
   2   B   :    0.032678691    0.043331368    0.037841597
   3   B   :   -0.044891427    0.035956959    0.060189961
   4   B   :   -0.050718604    0.025597450    0.041980222
   5   B   :    0.001511163   -0.051050494    0.025350433
   6   B   :   -0.001470239   -0.048910241    0.059713509
   7   B   :    0.062812946    0.034108286   -0.035951602
   8   B   :   -0.006530861    0.038130070   -0.059343022
   9   B   :   -0.036708876    0.018571637   -0.042348385
  10   B   :   -0.047934367   -0.016171105   -0.040142760
  11   B   :    0.009800928   -0.047756079   -0.044887465
  12   B   :    0.027183061   -0.031036926   -0.062862817

Difference to translation invariance:
           :   -0.0000000000    0.0000000000    0.0000000000

Difference to rotation invariance:
           :   -0.0000540451   -0.0001963275    0.0001829584

Norm of the Cartesian gradient     ...    0.2474512150
RMS gradient                       ...    0.0412418692
MAX gradient                       ...    0.0628628165

-------
TIMINGS
-------

Total SCF gradient time     ....        1.281 sec

Densities                   ....       0.001 sec  (  0.0%)
One electron gradient       ....       0.048 sec  (  3.8%)
RI-J Coulomb gradient       ....       0.339 sec  ( 26.4%)
XC gradient                 ....       0.837 sec  ( 65.3%)

Maximum memory used throughout the entire SCFGRAD-calculation: 29.6 MB
------------------------------------------------------------------------------
                         ORCA GEOMETRY RELAXATION STEP
------------------------------------------------------------------------------

Reading the OPT-File                    .... done
Getting information on internals        .... done
Copying old internal coords+grads       .... done
Making the new internal coordinates     .... (2022 redundants) done
Validating the new internal coordinates .... (2022 redundants) done
Calculating the B-matrix                .... done
Calculating the G,G- and P matrices     .... done
Transforming gradient to internals      .... done
Projecting the internal gradient        .... done
Number of atoms                         ....  12
Number of internal coordinates          ....  73
Current Energy                          ....  -297.065294250 Eh
Current gradient norm                   ....     0.247451215 Eh/bohr
Maximum allowed component of the step   ....  0.300
Current trust radius                    ....  0.300
Evaluating the initial hessian          ....  (Almloef) done
Projecting the Hessian                  .... done
Forming the augmented Hessian           .... done
Diagonalizing the augmented Hessian     .... done
Last element of RFO vector              ....  0.720888308
Lowest eigenvalues of augmented Hessian:
 -0.942816516  0.010000000  0.010000000  0.010000000  0.015934515
Length of the computed step             ....  0.961385073
Warning: the length of the step is outside the trust region - taking restricted step instead
The input lambda is                     ....     0.009000
   iter:   5  x=    0.002395  g=7993535.704160 f(x)= 20291.872978
   iter:  10  x=   -0.049022  g=17828.645519 f(x)=   357.320732
   iter:  15  x=   -0.493167  g=   37.438580 f(x)=     6.607013
   iter:  20  x=   -2.852935  g=    0.144534 f(x)=     0.081460
   iter:  25  x=   -3.192153  g=    0.054899 f(x)=     0.000000
The output lambda is                    ....    -3.192153 (26 iterations)
The final length of the internal step   ....  0.300000000
Converting the step to Cartesian space:
 Initial RMS(Int)=    0.0351123442
Transforming coordinates:
 Iter   0:  RMS(Cart)=    0.6096965539 RMS(Int)=    0.0376959207
 Iter   5:  RMS(Cart)=    0.0000755232 RMS(Int)=    0.0000198797
 Iter  10:  RMS(Cart)=    0.0000000311 RMS(Int)=    0.0000000160
done
Storing new coordinates                 .... done

                                .--------------------.
          ----------------------|Geometry convergence|-------------------------
          Item                value                   Tolerance       Converged
          ---------------------------------------------------------------------
          RMS gradient        0.1152823699            0.0001000000      NO
          MAX gradient        0.5355366051            0.0003000000      NO
          RMS step            0.0351123442            0.0020000000      NO
          MAX step            0.1672426790            0.0040000000      NO
          -------------------------------------------------------------------------
          ........................................................
          Max(Bonds)      0.0232      Max(Angles)    5.90
          Max(Dihed)        9.58      Max(Improp)    0.00
          ---------------------------------------------------------------------

The optimization has not yet converged - more geometry cycles are needed


    ---------------------------------------------------------------------------
                         Redundant Internal Coordinates
                            (Angstroem and degrees)

        Definition                    Value    dE/dq     Step     New-Value
    ----------------------------------------------------------------------------
     1. B(B   1,B   0)                2.0488  0.142912 -0.0232    2.0256   
     2. B(B   2,B   1)                1.9385  0.061092 -0.0097    1.9289   
     3. B(B   4,B   3)                1.9793  0.029899 -0.0048    1.9745   
     4. B(B   6,B   1)                2.0043  0.036472 -0.0058    1.9985   
     5. B(B   7,B   2)                1.8536  0.026623 -0.0044    1.8492   
     6. B(B   7,B   6)                1.8543  0.032646 -0.0052    1.8491   
     7. B(B   7,B   1)                1.9061  0.039777 -0.0063    1.8998   
     8. B(B   8,B   2)                2.0806  0.040907 -0.0066    2.0740   
     9. B(B   9,B   4)                1.7254  0.009651 -0.0016    1.7238   
    10. B(B   9,B   3)                1.9725  0.038586 -0.0062    1.9663   
    11. B(B  10,B   9)                2.0698  0.049347 -0.0080    2.0619   
    12. B(B  10,B   5)                1.9962  0.072753 -0.0117    1.9845   
    13. B(B  10,B   4)                1.9828  0.034476 -0.0056    1.9772   
    14. B(B  11,B   5)                2.0468  0.133623 -0.0216    2.0252   
    15. B(B  11,B   0)                2.0020  0.109037 -0.0176    1.9844   
    16. A(B   1,B   0,B  11)          110.71  0.352740   -5.90    104.81   
    17. A(B   0,B   1,B   2)          127.50  0.069563   -1.21    126.29   
    18. A(B   0,B   1,B   6)           65.27  0.069619   -1.20     64.07   
    19. A(B   0,B   1,B   7)          111.57  0.092145   -1.59    109.98   
    20. A(B   2,B   1,B   7)           57.64 -0.007003    0.11     57.75   
    21. A(B   6,B   1,B   7)           56.55 -0.001015    0.02     56.56   
    22. A(B   2,B   1,B   6)          111.13 -0.002009    0.03    111.16   
    23. A(B   7,B   2,B   8)           64.66  0.030376   -0.51     64.15   
    24. A(B   1,B   2,B   8)          114.30  0.037515   -0.64    113.66   
    25. A(B   1,B   2,B   7)           60.30 -0.001744    0.03     60.33   
    26. A(B   4,B   3,B   9)           51.77 -0.006020    0.10     51.88   
    27. A(B   3,B   4,B   9)           63.91  0.005412   -0.09     63.82   
    28. A(B   9,B   4,B  10)           67.45  0.007920   -0.14     67.31   
    29. A(B   3,B   4,B  10)          118.87  0.019932   -0.35    118.52   
    30. A(B  10,B   5,B  11)           70.52  0.289785   -4.85     65.67   
    31. A(B   1,B   6,B   7)           59.05  0.001761   -0.03     59.02   
    32. A(B   2,B   7,B   6)          122.59  0.014315   -0.25    122.34   
    33. A(B   1,B   7,B   6)           64.40 -0.000747    0.01     64.41   
    34. A(B   1,B   7,B   2)           62.06  0.008747   -0.15     61.91   
    35. A(B   4,B   9,B  10)           62.21 -0.000239    0.01     62.22   
    36. A(B   3,B   9,B  10)          115.10  0.009324   -0.17    114.93   
    37. A(B   3,B   9,B   4)           64.32  0.000608   -0.01     64.31   
    38. A(B   5,B  10,B   9)          113.40  0.069325   -1.17    112.23   
    39. A(B   4,B  10,B   9)           50.34 -0.007680    0.13     50.47   
    40. A(B   4,B  10,B   5)           72.13  0.075326   -1.27     70.86   
    41. A(B   0,B  11,B   5)           66.59  0.328619   -5.50     61.09   
    42. D(B   2,B   1,B   0,B  11)     62.97 -0.065094    1.17     64.15   
    43. D(B   7,B   1,B   0,B  11)     -2.06 -0.122758    2.18      0.12   
    44. D(B   6,B   1,B   0,B  11)    -35.48 -0.087240    1.57    -33.91   
    45. D(B   8,B   2,B   1,B   6)     17.88  0.015152   -0.25     17.64   
    46. D(B   8,B   2,B   1,B   7)     37.05 -0.003017    0.07     37.13   
    47. D(B   8,B   2,B   1,B   0)    -56.53 -0.085201    1.50    -55.03   
    48. D(B   7,B   2,B   1,B   6)    -19.17  0.018168   -0.32    -19.49   
    49. D(B   7,B   2,B   1,B   0)    -93.58 -0.082184    1.42    -92.16   
    50. D(B  10,B   4,B   3,B   9)     40.75 -0.005812    0.11     40.86   
    51. D(B   7,B   6,B   1,B   2)     19.42 -0.019750    0.34     19.76   
    52. D(B   7,B   6,B   1,B   0)    142.13  0.069663   -1.21    140.93   
    53. D(B   2,B   7,B   1,B   6)    158.46  0.020054   -0.35    158.11   
    54. D(B   2,B   7,B   1,B   0)    121.63  0.035860   -0.63    121.00   
    55. D(B   6,B   7,B   1,B   0)    -36.84  0.015806   -0.28    -37.11   
    56. D(B   6,B   7,B   1,B   2)   -158.46 -0.020054    0.35   -158.11   
    57. D(B   2,B   7,B   6,B   1)    -22.64  0.015440   -0.27    -22.91   
    58. D(B   6,B   7,B   2,B   8)   -119.44 -0.044976    0.79   -118.65   
    59. D(B   6,B   7,B   2,B   1)     23.14 -0.017955    0.32     23.45   
    60. D(B   1,B   7,B   2,B   8)   -142.58 -0.027021    0.48   -142.10   
    61. D(B  10,B   9,B   4,B   3)    141.76  0.016567   -0.30    141.46   
    62. D(B   3,B   9,B   4,B  10)   -141.76 -0.016567    0.30   -141.46   
    63. D(B  10,B   9,B   3,B   4)    -37.21  0.012741   -0.23    -37.44   
    64. D(B   5,B  10,B   9,B   4)    -37.53 -0.019427    0.33    -37.20   
    65. D(B   5,B  10,B   9,B   3)      0.49 -0.032221    0.56      1.05   
    66. D(B   4,B  10,B   9,B   3)     38.02 -0.012794    0.23     38.25   
    67. D(B   9,B  10,B   5,B  11)   -113.97 -0.190541    3.41   -110.56   
    68. D(B   4,B  10,B   5,B  11)   -143.49 -0.187506    3.36   -140.14   
    69. D(B   9,B  10,B   4,B   3)    -39.40  0.006066   -0.11    -39.52   
    70. D(B   5,B  10,B   4,B   9)    144.03  0.021043   -0.35    143.67   
    71. D(B   5,B  10,B   4,B   3)    104.62  0.027109   -0.47    104.15   
    72. D(B   5,B  11,B   0,B   1)   -109.40 -0.535537    9.58    -99.81   
    73. D(B   0,B  11,B   5,B  10)    143.81  0.368683   -6.60    137.22   
    ----------------------------------------------------------------------------

Geometry step timings:
Preparation and reading OPT file:      0.000 s ( 1.129 %)
Internal coordinates            :      0.000 s ( 1.982 %)
B/P matrices and projection     :      0.001 s (18.557 %)
Hessian update/contruction      :      0.000 s (11.977 %)
Making the step                 :      0.001 s (39.014 %)
Converting the step to Cartesian:      0.000 s ( 4.460 %)
Storing new data                :      0.000 s ( 2.340 %)
Checking convergence            :      0.000 s ( 1.267 %)
Final printing                  :      0.001 s (19.246 %)
Total time                      :      0.004 s

Time for energy+gradient        :     15.650 s
Time for complete geometry iter :     16.435 s

         *************************************************************
         *                GEOMETRY OPTIMIZATION CYCLE   2            *
         *************************************************************
---------------------------------
CARTESIAN COORDINATES (ANGSTROEM)
---------------------------------
  B      2.091775   -0.111911    0.976105
  B      0.783332    1.433466    0.922206
  B     -1.131926    1.301450    0.735224
  B     -1.777275    0.599436    0.890802
  B     -1.270080   -1.285423    0.593002
  B      0.964039   -1.794357    0.749119
  B      1.706905    1.009594   -0.798688
  B     -0.076683    1.496637   -0.770614
  B     -1.733234    0.229443   -0.935287
  B     -1.642469   -0.366145   -0.816815
  B     -0.087288   -1.715011   -0.932092
  B      1.948352   -0.960368   -0.811980

----------------------------
CARTESIAN COORDINATES (A.U.)
----------------------------
  NO LB      ZA    FRAG     MASS         X           Y           Z
   0 B     5.0000    0    10.810    3.952882   -0.211480    1.844571
   1 B     5.0000    0    10.810    1.480283    2.708859    1.742716
   2 B     5.0000    0    10.810   -2.139030    2.459383    1.389373
   3 B     5.0000    0    10.810   -3.358563    1.132770    1.683372
   4 B     5.0000    0    10.810   -2.400104   -2.429098    1.120611
   5 B     5.0000    0    10.810    1.821769   -3.390844    1.415629
   6 B     5.0000    0    10.810    3.225583    1.907856   -1.509302
   7 B     5.0000    0    10.810   -0.144910    2.828234   -1.456250
   8 B     5.0000    0    10.810   -3.275338    0.433585   -1.767437
   9 B     5.0000    0    10.810   -3.103817   -0.691914   -1.543556
  10 B     5.0000    0    10.810   -0.164951   -3.240901   -1.761398
  11 B     5.0000    0    10.810    3.681852   -1.814833   -1.534419

--------------------------------
INTERNAL COORDINATES (ANGSTROEM)
--------------------------------
 B      0   0   0     0.000000000000     0.00000000     0.00000000
 B      1   0   0     2.025615620663     0.00000000     0.00000000
 B      2   1   0     1.928886853777   126.28116992     0.00000000
 B      3   2   1     0.966179144461   134.21394162    20.88889538
 B      4   3   2     1.974493896725   119.85065526   327.14233395
 B      1   2   3     2.038121794432   105.62850921     1.29035944
 B      2   1   3     1.998531784261    64.06153929   261.90814194
 B      7   2   1     1.849104069902    59.02333643   140.91643301
 B      4   3   2     1.863715958930    88.32033126   261.52841642
 B      9   4   3     0.614003198117    90.40152519   129.61479300
 B      5   4   3     1.977234061873   118.51580786   322.36507678
 B      1   2   3     1.984363341526   104.80546113    64.16800369

---------------------------
INTERNAL COORDINATES (A.U.)
---------------------------
 B      0   0   0     0.000000000000     0.00000000     0.00000000
 B      1   0   0     3.827858775646     0.00000000     0.00000000
 B      2   1   0     3.645067896959   126.28116992     0.00000000
 B      3   2   1     1.825813979338   134.21394162    20.88889538
 B      4   3   2     3.731252717909   119.85065526   327.14233395
 B      1   2   3     3.851492019053   105.62850921     1.29035944
 B      2   1   3     3.776677742190    64.06153929   261.90814194
 B      7   2   1     3.494300285234    59.02333643   140.91643301
 B      4   3   2     3.521912753796    88.32033126   261.52841642
 B      9   4   3     1.160297889792    90.40152519   129.61479300
 B      5   4   3     3.736430879600   118.51580786   322.36507678
 B      1   2   3     3.749903265677   104.80546113    64.16800369



           ************************************************************
           *        Program running with 8 parallel MPI-processes     *
           *              working on a common directory               *
           ************************************************************
------------------------------------------------------------------------------
                   ___                                                        
                  /   \      - P O W E R E D   B Y -                         
                 /     \                                                     
                 |  |  |   _    _      __       _____    __    __             
                 |  |  |  | |  | |    /  \     |  _  \  |  |  /  |          
                  \  \/   | |  | |   /    \    | | | |  |  | /  /          
                 / \  \   | |__| |  /  /\  \   | |_| |  |  |/  /          
                |  |  |   |  __  | /  /__\  \  |    /   |      \           
                |  |  |   | |  | | |   __   |  |    \   |  |\   \          
                \     /   | |  | | |  |  |  |  | |\  \  |  | \   \       
                 \___/    |_|  |_| |__|  |__|  |_| \__\ |__|  \__/        
                                                                              
                      - O R C A' S   B I G   F R I E N D -                    
                                      &                                       
                       - I N T E G R A L  F E E D E R -                       
                                                                              
 v1 FN, 2020, v2 2021, v3 2022-2024                                           
------------------------------------------------------------------------------


----------------------
SHARK INTEGRAL PACKAGE
----------------------

[...]
      pz      :     0.751734  p :     2.219020
      px      :     0.674845
      py      :     0.792441
      dz2     :     0.014566  d :     0.056177
      dxz     :     0.010662
      dyz     :     0.011757
      dx2y2   :     0.010382
      dxy     :     0.008809

  9 B s       :     2.725676  s :     2.725676
      pz      :     0.747327  p :     2.218755
      px      :     0.663741
      py      :     0.807686
      dz2     :     0.014622  d :     0.056178
      dxz     :     0.010717
      dyz     :     0.011884
      dx2y2   :     0.010062
      dxy     :     0.008892

 10 B s       :     2.725173  s :     2.725173
      pz      :     0.751852  p :     2.218266
      px      :     0.868717
      py      :     0.597697
      dz2     :     0.014562  d :     0.056166
      dxz     :     0.012278
      dyz     :     0.010103
      dx2y2   :     0.008237
      dxy     :     0.010987

 11 B s       :     2.724356  s :     2.724356
      pz      :     0.760130  p :     2.219022
      px      :     0.662558
      py      :     0.796335
      dz2     :     0.014488  d :     0.056183
      dxz     :     0.010548
      dyz     :     0.011393
      dx2y2   :     0.010692
      dxy     :     0.009061



                     *******************************
                     * LOEWDIN POPULATION ANALYSIS *
                     *******************************

----------------------
LOEWDIN ATOMIC CHARGES
----------------------
   0 B :   -0.000403
   1 B :    0.000215
   2 B :    0.000158
   3 B :   -0.000216
   4 B :   -0.000118
   5 B :    0.000360
   6 B :    0.000336
   7 B :   -0.000376
   8 B :    0.000129
   9 B :    0.000197
  10 B :   -0.000268
  11 B :   -0.000014

-------------------------------
LOEWDIN REDUCED ORBITAL CHARGES
-------------------------------
  0 B s       :     2.675121  s :     2.675121
      pz      :     0.781818  p :     2.182378
      px      :     0.533433
      py      :     0.867126
      dz2     :     0.040539  d :     0.142905
      dxz     :     0.016742
      dyz     :     0.034460
      dx2y2   :     0.021030
      dxy     :     0.030133

  1 B s       :     2.675321  s :     2.675321
      pz      :     0.782037  p :     2.181522
      px      :     0.778992
      py      :     0.620493
      dz2     :     0.040524  d :     0.142942
      dxz     :     0.029754
      dyz     :     0.021479
      dx2y2   :     0.028198
      dxy     :     0.022987

  2 B s       :     2.675274  s :     2.675274
      pz      :     0.791574  p :     2.181630
      px      :     0.783896
      py      :     0.606161
      dz2     :     0.040451  d :     0.142938
      dxz     :     0.030182
      dyz     :     0.020760
      dx2y2   :     0.027815
      dxy     :     0.023731

  3 B s       :     2.675161  s :     2.675161
      pz      :     0.799538  p :     2.182110
      px      :     0.515074
      py      :     0.867498
      dz2     :     0.040340  d :     0.142945
      dxz     :     0.016658
      dyz     :     0.033845
      dx2y2   :     0.021299
      dxy     :     0.030803

  4 B s       :     2.675108  s :     2.675108
      pz      :     0.799504  p :     2.182005
      px      :     0.769708
      py      :     0.612792
      dz2     :     0.040369  d :     0.143006
      dxz     :     0.029240
      dyz     :     0.021310
      dx2y2   :     0.028852
      dxy     :     0.023235

  5 B s       :     2.675290  s :     2.675290
      pz      :     0.791188  p :     2.181378
      px      :     0.792553
      py      :     0.597636
      dz2     :     0.040465  d :     0.142972
      dxz     :     0.030314
      dyz     :     0.020657
      dx2y2   :     0.027605
      dxy     :     0.023931

  6 B s       :     2.675322  s :     2.675322
      pz      :     0.800693  p :     2.181392
      px      :     0.594416
      py      :     0.786283
      dz2     :     0.040337  d :     0.142950
      dxz     :     0.020593
      dyz     :     0.029855
      dx2y2   :     0.028060
      dxy     :     0.024105

  7 B s       :     2.675168  s :     2.675168
      pz      :     0.796062  p :     2.182326
      px      :     0.866984
      py      :     0.519280
      dz2     :     0.040390  d :     0.142882
      dxz     :     0.034029
      dyz     :     0.016653
      dx2y2   :     0.021200
      dxy     :     0.030609

  8 B s       :     2.675328  s :     2.675328
      pz      :     0.785895  p :     2.181613
      px      :     0.624211
      py      :     0.771508
      dz2     :     0.040499  d :     0.142930
      dxz     :     0.021603
      dyz     :     0.029530
      dx2y2   :     0.028411
      dxy     :     0.022887

  9 B s       :     2.675307  s :     2.675307
      pz      :     0.780356  p :     2.181552
      px      :     0.610432
      py      :     0.790764
      dz2     :     0.040545  d :     0.142944
      dxz     :     0.020837
      dyz     :     0.030437
      dx2y2   :     0.027458
      dxy     :     0.023667

 10 B s       :     2.675145  s :     2.675145
      pz      :     0.786347  p :     2.182187
      px      :     0.867370
      py      :     0.528471
      dz2     :     0.040509  d :     0.142936
      dxz     :     0.034408
      dyz     :     0.016692
      dx2y2   :     0.021046
      dxy     :     0.030280

 11 B s       :     2.675201  s :     2.675201
      pz      :     0.796496  p :     2.181856
      px      :     0.608868
      py      :     0.776492
      dz2     :     0.040405  d :     0.142956
      dxz     :     0.021389
      dyz     :     0.029320
      dx2y2   :     0.028595
      dxy     :     0.023248



                      *****************************
                      * MAYER POPULATION ANALYSIS *
                      *****************************

  NA   - Mulliken gross atomic population
  ZA   - Total nuclear charge
  QA   - Mulliken gross atomic charge
  VA   - Mayer's total valence
  BVA  - Mayer's bonded valence
  FA   - Mayer's free valence

  ATOM       NA         ZA         QA         VA         BVA        FA
  0 B      4.9987     5.0000     0.0013     4.2258     4.2258     0.0000
  1 B      5.0010     5.0000    -0.0010     4.2283     4.2283     0.0000
  2 B      5.0001     5.0000    -0.0001     4.2276     4.2276     0.0000
  3 B      4.9994     5.0000     0.0006     4.2266     4.2266     0.0000
  4 B      4.9993     5.0000     0.0007     4.2273     4.2273     0.0000
  5 B      5.0009     5.0000    -0.0009     4.2284     4.2284     0.0000
  6 B      5.0010     5.0000    -0.0010     4.2282     4.2282     0.0000
  7 B      4.9987     5.0000     0.0013     4.2256     4.2256     0.0000
  8 B      5.0011     5.0000    -0.0011     4.2283     4.2283    -0.0000
  9 B      5.0006     5.0000    -0.0006     4.2278     4.2278    -0.0000
 10 B      4.9996     5.0000     0.0004     4.2267     4.2267     0.0000
 11 B      4.9996     5.0000     0.0004     4.2270     4.2270     0.0000

  Mayer bond orders larger than 0.100000
B(  0-B ,  1-B ) :   1.0032 B(  0-B ,  2-B ) :   0.1775 B(  0-B ,  4-B ) :   0.1774 
B(  0-B ,  5-B ) :   1.0027 B(  0-B ,  6-B ) :   0.7541 B(  0-B ,  7-B ) :   0.1194 
B(  0-B , 10-B ) :   0.1194 B(  0-B , 11-B ) :   0.7539 B(  1-B ,  2-B ) :   1.0027 
B(  1-B ,  3-B ) :   0.1778 B(  1-B ,  5-B ) :   0.1788 B(  1-B ,  6-B ) :   0.7543 
B(  1-B ,  7-B ) :   0.7539 B(  1-B ,  8-B ) :   0.1195 B(  1-B , 11-B ) :   0.1195 
B(  2-B ,  3-B ) :   1.0027 B(  2-B ,  4-B ) :   0.1785 B(  2-B ,  6-B ) :   0.1194 
B(  2-B ,  7-B ) :   0.7542 B(  2-B ,  8-B ) :   0.7545 B(  2-B ,  9-B ) :   0.1195 
B(  3-B ,  4-B ) :   1.0030 B(  3-B ,  5-B ) :   0.1783 B(  3-B ,  7-B ) :   0.1194 
B(  3-B ,  8-B ) :   0.7538 B(  3-B ,  9-B ) :   0.7540 B(  3-B , 10-B ) :   0.1195 
B(  4-B ,  5-B ) :   1.0025 B(  4-B ,  8-B ) :   0.1195 B(  4-B ,  9-B ) :   0.7544 
B(  4-B , 10-B ) :   0.7537 B(  4-B , 11-B ) :   0.1194 B(  5-B ,  6-B ) :   0.1194 
B(  5-B ,  9-B ) :   0.1196 B(  5-B , 10-B ) :   0.7542 B(  5-B , 11-B ) :   0.7543 
B(  6-B ,  7-B ) :   1.0027 B(  6-B ,  8-B ) :   0.1788 B(  6-B , 10-B ) :   0.1781 
B(  6-B , 11-B ) :   1.0027 B(  7-B ,  8-B ) :   1.0031 B(  7-B ,  9-B ) :   0.1775 
B(  7-B , 11-B ) :   0.1773 B(  8-B ,  9-B ) :   1.0028 B(  8-B , 10-B ) :   0.1777 
B(  9-B , 10-B ) :   1.0031 B(  9-B , 11-B ) :   0.1783 B( 10-B , 11-B ) :   1.0029 


-------
TIMINGS
-------

Total SCF time: 0 days 0 hours 0 min 2 sec 

Total time                  ....       2.634 sec
Sum of individual times     ....       2.271 sec  ( 86.2%)

SCF preparation             ....       0.695 sec  ( 26.4%)
Fock matrix formation       ....       1.289 sec  ( 48.9%)
  Startup                   ....       0.039 sec  (  3.0% of F)
  Split-RI-J                ....       0.465 sec  ( 36.1% of F)
  XC integration            ....       0.986 sec  ( 76.5% of F)
    XC Preparation          ....       0.000 sec  (  0.0% of XC)
    Basis function eval.    ....       0.213 sec  ( 21.6% of XC)
    Density eval.           ....       0.176 sec  ( 17.9% of XC)
    XC-Functional eval.     ....       0.026 sec  (  2.7% of XC)
    XC-Potential eval.      ....       0.224 sec  ( 22.7% of XC)
Diagonalization             ....       0.000 sec  (  0.0%)
Density matrix formation    ....       0.034 sec  (  1.3%)
Total Energy calculation    ....       0.017 sec  (  0.7%)
Population analysis         ....       0.113 sec  (  4.3%)
Orbital Transformation      ....       0.016 sec  (  0.6%)
Orbital Orthonormalization  ....       0.000 sec  (  0.0%)
DIIS solution               ....       0.019 sec  (  0.7%)
SOSCF solution              ....       0.087 sec  (  3.3%)
Finished LeanSCF after   2.8 sec

Maximum memory used throughout the entire LEANSCF-calculation: 11.6 MB


-------------------------------------------------------------------------------
                          DFT DISPERSION CORRECTION                            
                                                                               
                              DFTD3 V3.1  Rev 1                                
                          USING Becke-Johnson damping                          
-------------------------------------------------------------------------------
The BP86 functional is recognized
Active option DFTDOPT                   ...         4   

molecular C6(AA) [au] = 4067.178492 


            DFT-D V3
 parameters
 s6 scaling factor         :     1.0000 
 a1 scaling factor         :     0.3946 
 s8 scaling factor         :     3.2822 
 a2 scaling factor         :     4.8516 
 ad hoc parameters k1-k3   :    16.0000     1.3333    -4.0000 

 Edisp/kcal,au: -22.784944002441  -0.036310115646 
 E6   /kcal   :  -6.462132542 
 E8   /kcal   : -16.322811460 
 % E8         :  71.638584928 

-------------------------   ----------------
Dispersion correction           -0.036310116
-------------------------   ----------------


-------------------------   --------------------
FINAL SINGLE POINT ENERGY      -297.694579567139
-------------------------   --------------------

                                *** OPTIMIZATION RUN DONE ***



           ************************************************************
           *        Program running with 8 parallel MPI-processes     *
           *              working on a common directory               *
           ************************************************************

------------------------------------------------------------------------------
                              ORCA PROPERTY CALCULATIONS
------------------------------------------------------------------------------

GBWName                                 ... hex_antiprism_nn2.00_perturb0.gbw
Number of atoms                         ...     12
Number of basis functions               ...    168
Max core memory                         ...   2500 MB

Electric properties:
Dipole moment                           ... YES
Quadrupole moment                       ...  NO
Static polarizability (Dipole/Dipole)   ...  NO
Static polarizability (Dipole/Quad.)    ...  NO
Static polarizability (Quad./Quad.)     ...  NO
Static polarizability (Velocity)        ...  NO
Static hyperpolarizability              ...  NO

Atomic electric properties:
Dipole moment                           ...  NO
Quadrupole moment                       ...  NO
Static polarizability                   ...  NO

Choice of electric origin               ... Center of mass
Position of electric origin             ...    -0.035362    -0.025699    -0.031341

General magnetic properties:
Magnetizability                         ...  NO

EPR properties:
g-Tensor (aka g-matrix)                 ...  NO
Zero-Field splitting spin-orbit         ...  NO
Zero-field splitting spin-spin          ...  NO
Hyperfine couplings                     ...  NO (   0 nuclei)
Quadrupole couplings                    ...  NO (   0 nuclei)
Contact density                         ...  NO (   0 nuclei)

NMR properties:
Chemical shifts                         ...  NO (   0 nuclei)
Spin-rotation constants                 ...  NO (   0 nuclei)
Spin-spin couplings                     ...  NO (   0 nuclei,    0 pairs)

Choice of magnetic origin               ... GIAO
Position of magnetic origin             ...     0.000000     0.000000     0.000000

Properties with geometric perturbations:
SCF Hessian                             ...  NO
IR spectrum                             ...  NO
VCD spectrum                            ...  NO
X-ray spectroscopy properties:
SCF XES/XAS/RIXS spectra                ...  NO

SCF SOC stabilization energy            ...  NO
Diagonal Born-Oppenheimer correction    ...  NO

-------------
DIPOLE MOMENT
-------------

Method             : SCF
Type of density    : Electron Density
Multiplicity       :   1
Irrep              :   0
Energy             :  -297.6582694514934246 Eh
Basis              : AO
                                X                 Y                 Z
Electronic contribution:      0.000180112       0.000195609       0.000548878
Nuclear contribution   :      0.000000000      -0.000000000       0.000000000
                        -----------------------------------------
Total Dipole Moment    :      0.000180112       0.000195609       0.000548878
                        -----------------------------------------
Magnitude (a.u.)       :      0.000609893
Magnitude (Debye)      :      0.001550226



--------------------
Rotational spectrum 
--------------------
 
Rotational constants in cm-1:             0.068522             0.068517             0.048302 
Rotational constants in MHz :          2054.233013          2054.078290          1448.051748 

Dipole components along the rotational axes: 
x,y,z [a.u.] :    -0.000105     0.000272     0.000536 
x,y,z [Debye]:    -0.000266     0.000692     0.001362 

 

Dipole moment calculation done in   0.0 sec 

Maximum memory used throughout the entire PROP-calculation: 9.3 MB

--------------------------------
SUGGESTED CITATIONS FOR THIS RUN
--------------------------------

Below you find a list of papers that are relevant to this ORCA run
We neither can nor want to force you to cite these papers, but we appreciate if you do
You receive ORCA, which is the product of decades of hard work by many enthusiastic individuals, for free
The only thing we kindly ask in return is that you cite our papers,
We deeply appreciate it, if you show your appreciation for ORCA by not just citing the generic ORCA reference.

Please note that relegating all ORCA citations to the supporting information does *not* help us.
SI sections are not indexed - citations you put there will not count into any citation statistics
But we need these citations in order to attract the funding resources that allow us to do what we are doing

Therefore, if you are a happy ORCA user, please consider citing a few of the papers listed below in the main body of your paper

In addition to the list printed below, the program has created the file hex_antiprism_nn2.00_perturb0.bibtex that contains the list in bibtex format
You can import this file easily into all common literature databanks and citation aid programs

It goes without saying that in many instances, there are alternative algorithms to achieve similar
results as the ones you have gotten from ORCA. It is, of course, also the case that in some instances
ORCA just re-implements algorithms worked out by others. We are fully aware of that and we are also
fully appreciative of our colleagues work. Hence this citation list should not be read as indicating
that the listed papers, which are focused on our own work, are the only ones worth citing. It simply
meant to make it easier for users to cite ORCA specific papers. It is not a substitute for doing your
own literature research and citing the relevant literature in a scientifically appropriate manner.

List of essential papers. We consider these as the minimum necessary citations

  1. Neese, F.
     Software update: the ORCA program system, version 6.0
     WIRES Comput. Molec. Sci. 2025 15(1), e70019
     doi.org/10.1002/wcms.70019

List of papers to cite with high priority. The work reported in these papers was absolutely
necessary for this run to complete.
Our perspective: the developers of density functionals and basis sets usually get cited in chemistry papers
Good! But without the algorithms to do something with them, the functionals or basis sets would not do anything.
Hence, in our opinion, the algorithm design and method developments papers are equally worthy of getting cited

  1. Neese, F.
     An improvement of the resolution of the identity approximation for the formation of the Coulomb matrix
     J. Comp. Chem. 2003 24(14), 1740-1747
     doi.org/10.1002/jcc.10318
  2. Grimme, S.; Antony, J.; Ehrlich, S.; Krieg, H.
     A consistent and accurate ab initio parametrization of density functional dispersion correction (DFT-D) for the 94 elements H-Pu
     J. Chem. Phys. 2010 132 , 154104
     doi.org/10.1063/1.3382344
  3. Grimme, S.; Ehrlich, S.; Goerigk, L.
     Effect of the damping function in dispersion corrected density functional theory
     J. Comput. Chem. 2011 32(7), 1456-1465
     doi.org/10.1002/jcc.21759
  4. Neese, F.
     The SHARK Integral Generation and Digestion System
     J. Comp. Chem. 2022 44(3), 381
     doi.org/10.1002/jcc.26942

List of suggested additional citations. These are papers that are important in the 'surrounding' of 
of this run, or papers that preceded the highly important papers. If you like your results we are grateful for a citation.

  1. Neese, F.
     The ORCA program system
     WIRES Comput. Molec. Sci. 2012 2(1), 73-78
     doi.org/10.1002/wcms.81
  2. Neese, F.
     Software update: the ORCA program system, version 4.0
     WIRES Comput. Molec. Sci. 2018 8(1), 1-6
     doi.org/10.1002/wcms.1327
  3. Neese, F.; Wennmohs, F.; Becker, U.; Riplinger, C.
     The ORCA quantum chemistry program package
     J. Chem. Phys. 2020 152(22), 224108
     doi.org/10.1063/5.0004608
  4. Neese, F.
     Software update: The ORCA program system—Version 5.0
     WIRES Comput. Molec. Sci. 2022 12(1), e1606
     doi.org/10.1002/wcms.1606

List of optional additional citations

  1. Neese, F.
     Approximate second-order SCF convergence for spin unrestricted wavefunctions
     Chem. Phys. Lett. 2000 325(1-3), 93-98
     doi.org/10.1016/s0009-2614(00)00662-x

Timings for individual modules:

Sum of individual times          ...      405.441 sec (=   6.757 min)
Startup calculation              ...       53.714 sec (=   0.895 min)  13.2 %
SCF iterations                   ...      274.877 sec (=   4.581 min)  67.8 %
Property calculations            ...        0.698 sec (=   0.012 min)   0.2 %
SCF Gradient evaluation          ...       75.938 sec (=   1.266 min)  18.7 %
Geometry relaxation              ...        0.215 sec (=   0.004 min)   0.1 %
                             ****ORCA TERMINATED NORMALLY****
TOTAL RUN TIME: 0 days 0 hours 7 minutes 10 seconds 76 msec
