
                                 *****************
                                 * O   R   C   A *
                                 *****************

                                            #,                                       
                                            ###                                      
                                            ####                                     
                                            #####                                    
                                            ######                                   
                                           ########,                                 
                                     ,,################,,,,,                         
                               ,,#################################,,                 
                          ,,##########################################,,             
                       ,#########################################, ''#####,          
                    ,#############################################,,   '####,        
                  ,##################################################,,,,####,       
                ,###########''''           ''''###############################       
              ,#####''   ,,,,##########,,,,          '''####'''          '####       
            ,##' ,,,,###########################,,,                        '##       
           ' ,,###''''                  '''############,,,                           
         ,,##''                                '''############,,,,        ,,,,,,###''
      ,#''                                            '''#######################'''  
     '                                                          ''''####''''         
             ,#######,   #######,   ,#######,      ##                                
            ,#'     '#,  ##    ##  ,#'     '#,    #''#        ,####,    ,#,          
            ##       ##  ##   ,#'  ##            #'  '#       #'       ,# #          
            ##       ##  #######   ##           ,######,      #####,      #          
            '#,     ,#'  ##    ##  '#,     ,#' ,#      #,     #,   #      #          
             '#######'   ##     ##  '#######'  #'      '#     '####' #    #          



                #########################################################
                #                        -***-                          #
                #          Department of theory and spectroscopy        #
                #                                                       #
                #                      Frank Neese                      #
                #                                                       #
                #     Directorship, Architecture, Infrastructure        #
                #                    SHARK, DRIVERS                     #
                #        Core code/Algorithms in most modules           #
                #                                                       #
                #        Max Planck Institute fuer Kohlenforschung      #
                #                Kaiser Wilhelm Platz 1                 #
                #                 D-45470 Muelheim/Ruhr                 #
                #                      Germany                          #
                #                                                       #
                #                  All rights reserved                  #
                #                        -***-                          #
                #########################################################


                         Program Version 6.1.1  -  RELEASE   -
                                (GIT: $487d211c$)
                          ($2025-11-21 10:33:24 +0100$)
                                                                         
                                  - NO-DMRG VERSION -                    
                                                                         


 With contributions from (in alphabetic order):
[Max-Planck-Institut fuer Kohlenforschung]                               
  Daniel Aravena         : Magnetic Suceptibility                        
  Michael Atanasov       : Ab Initio Ligand Field Theory (pilot matlab implementation)
  Alexander A. Auer      : GIAO ZORA, VPT2 properties, NMR spectrum      
  Ute Becker             : All parallelization in ORCA, NUMFREQ, NUMCALC 
  Giovanni Bistoni       : ED, misc. LED, open-shell LED, HFLD           
  Dmytro Bykov           : pre 5.0 version of the SCF Hessian            
  Marcos Casanova-Páez   : Triplet and SCS-CIS(D). UHF-(DLPNO)-IP/EA/STEOM-CCSD. UHF-CVS-IP/STEOM-CCSD   
  Vijay G. Chilkuri      : MRCI spin determinant printing, contributions to CSF-ICE 
  Pauline Colinet        : FMM embedding                                 
  Dipayan Datta          : RHF DLPNO-CCSD density                        
  Achintya Kumar Dutta   : EOM-CC, STEOM-CC                              
  Nicolas Foglia         : Exact transition moments, OPA infrastructure, MCD improvements    
  Dmitry Ganyushin       : Spin-Orbit,Spin-Spin,Magnetic field MRCI      
  Miquel Garcia-Rates    : C-PCM and meta-GGA Hessian, CCSD/C-PCM, Gaussian charge scheme 
  Tiago L. C. Gouveia    : GS-ROHF, GS-ROCIS                             
  Yang Guo               : DLPNO-NEVPT2, F12-NEVPT2, CIM, IAO-localization        
  Andreas Hansen         : Spin unrestricted coupled pair/coupled cluster methods 
  Ingolf Harden          : AUTO-CI MPn and infrastructure                
  Benjamin Helmich-Paris : MC-RPA, TRAH-(SCF,CASSCF), AVAS, COSX integrals, SCF dyn. polar., MC-PDFT, srDFT 
  Lee Huntington         : MR-EOM, pCC                                   
  Robert Izsak           : Overlap fitted RIJCOSX, COSX-SCS-MP3, EOM     
  Riya Kayal             : Wick's Theorem for AUTO-CI, AUTO-CI UHF-CCSDT 
  Emily Kempfer          : AUTO-CI RHF CISDT and CCSDT, approximate NEVPT4
  Christian Kollmar      : KDIIS, OOCD, Brueckner-CCSD(T), CCSD density, CASPT2, CASPT2-K, improved NEVPT2 
  Axel Koslowski         : Symmetry handling                             
  Simone Kossmann        : meta-GGA functionals, TD-DFT gradient, OOMP2, (MP2 Hessian; deprecated post 5.0) 
  Lucas Lang             : DCDCAS, Hyperfine gauge corrections, ICE-SOC+SSC
  Marvin Lechner         : AUTO-CI (C++ implementation), FIC-MRCC        
  Spencer Leger          : CASSCF response                               
  Dagmar Lenk            : GEPOL surface, SMD, ORCA-2-JSON               
  Dimitrios Liakos       : Extrapolation schemes; Compound Job, Property file
  Dimitrios Manganas     : Further ROCIS development; embedding schemes. LFT, Crystal Embedding 
  Dimitrios Pantazis     : SARC Basis sets                               
  Anastasios Papadopoulos: AUTO-CI, single reference methods and gradients 
  Taras Petrenko         : pre 6.0 DFT Hessian and TD-DFT gradient,  ECA, NRVS 
  Petra Pikulova         : Analytic Raman intensities                    
  Peter Pinski           : DLPNO-MP2, DLPNO-MP2 Gradient                 
  Shashank Vittal Rao    : ES-AILFT, MagRelax                            
  Christoph Reimann      : Effective Core Potentials                     
  Marius Retegan         : Local ZFS, SOC                                
  Christoph Riplinger    : Optimizer, TS searches, QM/MM, DLPNO-CCSD(T), (RO)-DLPNO pert. Triples 
  Michael Roemelt        : Original ROCIS implementation, recursive CI coupling coefficients
  Masaaki Saitow         : Open-shell DLPNO-CCSD energy and density      
  Barbara Sandhoefer     : DKH picture change effects                    
  Yorick L. A. Schmerwitz: GMF and freeze-and-release deltaSCF, NEB S-IDPP initial path                    
  Kantharuban Sivalingam : CASSCF convergence/infrastructure, NEVPT2, NEVPT3, NEVPT4(SD), FIC-MRCI and CEPA variants
  Bernardo de Souza      : ESD, SOC TD-DFT                               
  Georgi L. Stoychev     : AutoAux, RI-MP2 NMR, DLPNO-MP2 response, X2C  
  Van Anh Tran           : RI-MP2 g-tensors                              
  Willem Van den Heuvel  : Paramagnetic NMR                              
  Zikuan Wang            : NOTCH, Electric field optimization            
  Frank Wennmohs         : Technical directorship and infrastructure     
  Hang Xu                : AUTO-CI-Response properties                   
                                                                         
[FACCTs GmbH]                                                            
  Markus Bursch, Nicolas Foglia, Miquel Garcia-Rates, Ingolf Harden, Hagen Neugebauer, Anastasios Papadopoulos, 
  Christoph Riplinger, Bernardo de Souza, Georgi L. Stoychev                                                    
                                                                 
  APM, various basis sets, CI-OPT, improved COSX, DLPNO-Multilevel,           
  DOCKER, DRACO, updates on ESD, Fragmentator, GOAT, IRC, LR-CPCM, L-BFGS, MBIS, meta-GGA TD-DFT gradient, ML-optimized integration grids, 
  MM, NACMEs, nearIR, NEB, NEB-TS, NL-DFT gradient (VV10), 2- and 3-layer-ONIOM, interface openCOSMO-RS, QMMM,   
  Crystal-QMMM, RESP, rigid body optimization, SF, symmetry and pop. for TD-DFT, various functionals, SOLVATOR                                   
                                                                         
[Other institutions]                                                     
  V. Asgeirsson          : NEB                                           
  Christoph Bannwarth    : sTDA-DFT, sTD-DFT, PBEh-3c, B97-3c, D3        
  Giovanni Bistoni       : ETS/NOCV, ADLD/ADEX, COVALED                  
  Martin Brehm           : Molecular dynamics                            
  Ronald Cardenas        : ETS/NOCV                                      
  Martina Colucci        : COVALED                                       
  Sebastian Ehlert       : rSCAN, r2SCAN, r2SCAN-3c, D4, dhf basis sets  
  Marvin Friede          : D4 for Fr, Ra, Ac-Lr                          
  Lars Goerigk           : TD-DFT with DH, B97 family of functionals     
  Stefan Grimme          : VdW corrections, initial TS optimization, DFT functionals, gCP, sTDA/sTD-DF 
  Waldemar Hujo          : DFT-NL                                        
  H. Jonsson             : NEB                                           
  Holger Kruse           : gCP                                           
  Marcel Mueller         : wB97X-3c, vDZP basis set                      
  Hagen Neugebauer       : wr2SCAN, Native XTB                           
  Gianluca Regni         : ADLD/ADEX                                     
  Tobias Risthaus        : pre 6.0 range-separated hybrid DFT and stability analysis
  Lukas Wittmann         : regularized MP2, r2SCAN double-hybrids, wr2SCAN        
                                                                         
We gratefully acknowledge several colleagues who have allowed us to      
interface, adapt or use parts of their codes:                            
  Ed Valeev, F. Pavosevic, A. Kumar             : LibInt (2-el integral package), F12 methods 
  Garnet Chan, S. Sharma, J. Yang, R. Olivares  : DMRG                   
  Ulf Ekstrom                                   : XCFun DFT Library      
  Mihaly Kallay                                 : mrcc  (arbitrary order and MRCC methods)
  Frank Weinhold                                : gennbo (NPA and NBO analysis)           
  Simon Mueller                                 : openCOSMO-RS                            
  Christopher J. Cramer and Donald G. Truhlar   : smd solvation model                     
  S Lehtola, MJT Oliveira, MAL Marques          : LibXC Library                           
  Liviu Ungur et al                             : ANISO software                          


 Your calculation uses the libint2 library for the computation of 2-el integrals
 For citations please refer to: http://libint.valeyev.net

 Your ORCA version has been built with support for libXC version: 7.0.0
 For citations please refer to: https://libxc.gitlab.io

 This ORCA versions uses:
   CBLAS   interface :  Fast vector & matrix operations
   LAPACKE interface :  Fast linear algebra routines
   SCALAPACK package :  Parallel linear algebra routines
   Shared memory     :  Shared parallel matrices
   BLAS/LAPACK       :  OpenBLAS 0.3.29  USE64BITINT DYNAMIC_ARCH NO_AFFINITY Zen SINGLE_THREADED
        Core in use  :  Zen
   Copyright (c) 2011-2014, The OpenBLAS Project


  ***********************************
  * Starting time: Thu Apr 23 16:49:17 2026
  * Host name:     vmi3233575
  * Process ID:    1351297
  * Working dir.:  /root/b12_scan/jobs/hex_prism_nn3.00
  ***********************************

NOTE: MaxCore=2500 MB was set to SCF,MP2,MDCI,CIPSI,MRCI,RASCI and CIS
      => If you want to overwrite this, your respective input block should be placed after the MaxCore statement
Your calculation utilizes the atom-pairwise dispersion correction
with the Becke-Johnson damping scheme (D3BJ)


================================================================================

----- Orbital basis set information -----
Your calculation utilizes the basis: def2-SVP
   F. Weigend and R. Ahlrichs, Phys. Chem. Chem. Phys. 7, 3297 (2005).

----- AuxJ basis set information -----
Your calculation utilizes the auxiliary basis: def2/J
   H-Rn: F. Weigend, Phys. Chem. Chem. Phys. 8, 1057 (2006).
   Fr-Lr: K. Eichkorn, F. Weigend, O. Treutler, R. Ahlrichs; Theor. Chem. Acc. 97, 119 (1997).

================================================================================
                                        WARNINGS
                       Please study these warnings very carefully!
================================================================================


WARNING: Geometry Optimization
  ===> : Switching off AutoStart
         For restart on a previous wavefunction, please use MOREAD

================================================================================
                                       INPUT FILE
================================================================================
NAME = hex_prism_nn3.00.inp
|  1> ! BP86 def2-SVP def2/J RI Opt TightSCF D3BJ
|  2> ! SlowConv
|  3> 
|  4> %pal nprocs 8 end
|  5> %maxcore 2500
|  6> 
|  7> %geom
|  8>   MaxIter 300
|  9> end
| 10> 
| 11> * xyz 0 1
| 12> B      3.75000000     -0.00000000      1.50000000
| 13> B      3.75000000     -0.00000000     -1.50000000
| 14> B      1.87500000      3.24759526      1.50000000
| 15> B      1.87500000      3.24759526     -1.50000000
| 16> B     -1.87500000      3.24759526      1.50000000
| 17> B     -1.87500000      3.24759526     -1.50000000
| 18> B     -3.75000000      0.00000000      1.50000000
| 19> B     -3.75000000      0.00000000     -1.50000000
| 20> B     -1.87500000     -3.24759526      1.50000000
| 21> B     -1.87500000     -3.24759526     -1.50000000
| 22> B      1.87500000     -3.24759526      1.50000000
| 23> B      1.87500000     -3.24759526     -1.50000000
| 24> *
| 25> 
| 26>                          ****END OF INPUT****
================================================================================

                       *****************************
                       * Geometry Optimization Run *
                       *****************************

Geometry optimization settings:
Update method            Update   .... BFGS
Choice of coordinates    CoordSys .... (2022) Redundant Internals
Initial Hessian          InHess   .... Almloef's Model
Max. no of cycles        MaxIter  .... 300

Convergence Tolerances:
Energy Change            TolE     ....  5.0000e-06 Eh
Max. Gradient            TolMAXG  ....  3.0000e-04 Eh/bohr
RMS Gradient             TolRMSG  ....  1.0000e-04 Eh/bohr
Max. Displacement        TolMAXD  ....  4.0000e-03 bohr
RMS Displacement         TolRMSD  ....  2.0000e-03 bohr
Strict Convergence                .... False

------------------------------------------------------------------------------
                        ORCA OPTIMIZATION COORDINATE SETUP
------------------------------------------------------------------------------

The optimization will be done in redundant internal coordinates (2022)
Making redundant internal coordinates   ...  (2022 redundants) done
Evaluating the initial hessian          ...  (Almloef) done
Evaluating the coordinates              ...  done
Calculating the B-matrix                .... done
Calculating the G-matrix                .... done
The number of degrees of freedom        ....  246

    -----------------------------------------------------------------
                    Redundant Internal Coordinates


    -----------------------------------------------------------------
         Definition                    Initial Value    Approx d2E/dq
    -----------------------------------------------------------------
      1. B(B   1,B   0)                  3.0000         0.010000   
      2. B(B   2,B   1)                  4.8023         0.010000   
      3. B(B   2,B   0)                  3.7500         0.010000   
      4. B(B   3,B   2)                  3.0000         0.010000   
      5. B(B   3,B   1)                  3.7500         0.010000   
      6. B(B   4,B   3)                  4.8023         0.010000   
      7. B(B   4,B   2)                  3.7500         0.010000   
      8. B(B   5,B   4)                  3.0000         0.010000   
      9. B(B   5,B   3)                  3.7500         0.010000   
     10. B(B   6,B   5)                  4.8023         0.010000   
     11. B(B   6,B   4)                  3.7500         0.010000   
     12. B(B   7,B   6)                  3.0000         0.010000   
     13. B(B   7,B   5)                  3.7500         0.010000   
     14. B(B   8,B   7)                  4.8023         0.010000   
     15. B(B   8,B   6)                  3.7500         0.010000   
     16. B(B   9,B   7)                  3.7500         0.010000   
     17. B(B   9,B   8)                  3.0000         0.010000   
     18. B(B  10,B   1)                  4.8023         0.010000   
     19. B(B  10,B   0)                  3.7500         0.010000   
     20. B(B  10,B   8)                  3.7500         0.010000   
     21. B(B  11,B   9)                  3.7500         0.010000   
     22. B(B  11,B   8)                  4.8023         0.010000   
     23. B(B  11,B   1)                  3.7500         0.010000   
     24. B(B  11,B  10)                  3.0000         0.010000   
     25. A(B   1,B   0,B  10)           90.0000         0.104208   
     26. A(B   1,B   0,B   2)           90.0000         0.104208   
     27. A(B   2,B   0,B  10)          120.0000         0.097152   
     28. A(B   0,B   1,B   3)           90.0000         0.104208   
     29. A(B   0,B   1,B   2)           51.3402         0.095340   
     30. A(B   0,B   1,B  11)           90.0000         0.104208   
     31. A(B   0,B   1,B  10)           51.3402         0.095340   
     32. A(B   3,B   1,B  10)          112.9815         0.092398   
     33. A(B   2,B   1,B  11)          112.9815         0.092398   
     34. A(B   2,B   1,B  10)           85.1029         0.090417   
     35. A(B  10,B   1,B  11)           38.6598         0.092398   
     36. A(B   2,B   1,B   3)           38.6598         0.092398   
     37. A(B   3,B   1,B  11)          120.0000         0.097152   
     38. A(B   0,B   2,B   1)           38.6598         0.092398   
     39. A(B   0,B   2,B   4)          120.0000         0.097152   
     40. A(B   1,B   2,B   3)           51.3402         0.095340   
     41. A(B   3,B   2,B   4)           90.0000         0.104208   
     42. A(B   1,B   2,B   4)          112.9815         0.092398   
     43. A(B   0,B   2,B   3)           90.0000         0.104208   
     44. A(B   1,B   3,B   4)          112.9815         0.092398   
     45. A(B   1,B   3,B   2)           90.0000         0.104208   
     46. A(B   2,B   3,B   5)           90.0000         0.104208   
     47. A(B   2,B   3,B   4)           51.3402         0.095340   
     48. A(B   4,B   3,B   5)           38.6598         0.092398   
     49. A(B   1,B   3,B   5)          120.0000         0.097152   
     50. A(B   2,B   4,B   3)           38.6598         0.092398   
     51. A(B   3,B   4,B   5)           51.3402         0.095340   
     52. A(B   2,B   4,B   5)           90.0000         0.104208   
     53. A(B   5,B   4,B   6)           90.0000         0.104208   
     54. A(B   3,B   4,B   6)          112.9815         0.092398   
     55. A(B   2,B   4,B   6)          120.0000         0.097152   
     56. A(B   6,B   5,B   7)           38.6598         0.092398   
     57. A(B   3,B   5,B   7)          120.0000         0.097152   
     58. A(B   4,B   5,B   7)           90.0000         0.104208   
     59. A(B   3,B   5,B   6)          112.9815         0.092398   
     60. A(B   4,B   5,B   6)           51.3402         0.095340   
     61. A(B   3,B   5,B   4)           90.0000         0.104208   
     62. A(B   7,B   6,B   8)           90.0000         0.104208   
     63. A(B   5,B   6,B   8)          112.9815         0.092398   
     64. A(B   4,B   6,B   8)          120.0000         0.097152   
     65. A(B   5,B   6,B   7)           51.3402         0.095340   
     66. A(B   4,B   6,B   7)           90.0000         0.104208   
     67. A(B   4,B   6,B   5)           38.6598         0.092398   
     68. A(B   5,B   7,B   8)          112.9815         0.092398   
     69. A(B   5,B   7,B   9)          120.0000         0.097152   
     70. A(B   6,B   7,B   8)           51.3402         0.095340   
     71. A(B   5,B   7,B   6)           90.0000         0.104208   
     72. A(B   8,B   7,B   9)           38.6598         0.092398   
     73. A(B   6,B   7,B   9)           90.0000         0.104208   
     74. A(B   6,B   8,B   9)           90.0000         0.104208   
     75. A(B   7,B   8,B  11)           85.1029         0.090417   
     76. A(B  10,B   8,B  11)           38.6598         0.092398   
     77. A(B   6,B   8,B  11)          112.9815         0.092398   
     78. A(B   7,B   8,B  10)          112.9815         0.092398   
     79. A(B   6,B   8,B   7)           38.6598         0.092398   
     80. A(B   6,B   8,B  10)          120.0000         0.097152   
     81. A(B   9,B   8,B  10)           90.0000         0.104208   
     82. A(B   9,B   8,B  11)           51.3402         0.095340   
     83. A(B   7,B   8,B   9)           51.3402         0.095340   
     84. A(B   7,B   9,B  11)          120.0000         0.097152   
     85. A(B   8,B   9,B  11)           90.0000         0.104208   
     86. A(B   7,B   9,B   8)           90.0000         0.104208   
     87. A(B   0,B  10,B  11)           90.0000         0.104208   
     88. A(B   0,B  10,B   1)           38.6598         0.092398   
     89. A(B   8,B  10,B  11)           90.0000         0.104208   
     90. A(B   1,B  10,B   8)          112.9815         0.092398   
     91. A(B   0,B  10,B   8)          120.0000         0.097152   
     92. A(B   1,B  10,B  11)           51.3402         0.095340   
     93. A(B   1,B  11,B   8)          112.9815         0.092398   
     94. A(B   8,B  11,B  10)           51.3402         0.095340   
     95. A(B   1,B  11,B  10)           90.0000         0.104208   
     96. A(B   8,B  11,B   9)           38.6598         0.092398   
     97. A(B   1,B  11,B   9)          120.0000         0.097152   
     98. A(B   9,B  11,B  10)           90.0000         0.104208   
     99. D(B   3,B   1,B   0,B  10)    120.0000         0.010000   
    100. D(B  11,B   1,B   0,B  10)     -0.0000         0.010000   
    101. D(B   2,B   1,B   0,B  10)    120.0000         0.010000   
    102. D(B   3,B   1,B   0,B   2)      0.0000         0.010000   
    103. D(B  11,B   1,B   0,B   2)   -120.0000         0.010000   
    104. D(B  10,B   1,B   0,B   2)   -120.0000         0.010000   
    105. D(B   0,B   2,B   1,B   3)    180.0000         0.010000   
    106. D(B   3,B   2,B   1,B  10)   -137.2555         0.010000   
    107. D(B   0,B   2,B   1,B  10)     42.7445         0.010000   
    108. D(B   0,B   2,B   1,B  11)     70.1673         0.010000   
    109. D(B   4,B   2,B   0,B   1)     90.0000         0.010000   
    110. D(B   1,B   2,B   0,B  10)    -90.0000         0.010000   
    111. D(B   3,B   2,B   0,B   1)      0.0000         0.010000   
    112. D(B   4,B   2,B   1,B   0)   -109.8327         0.010000   
    113. D(B   3,B   2,B   1,B  11)   -109.8327         0.010000   
    114. D(B   4,B   2,B   0,B  10)      0.0000         0.010000   
    115. D(B   3,B   2,B   1,B   0)    180.0000         0.010000   
    116. D(B   3,B   2,B   0,B  10)    -90.0000         0.010000   
    117. D(B   1,B   3,B   2,B   4)   -120.0000         0.010000   
    118. D(B   5,B   3,B   2,B   0)    120.0000         0.010000   
    119. D(B   4,B   3,B   2,B   0)    120.0000         0.010000   
    120. D(B   4,B   3,B   1,B  11)     42.7305         0.010000   
    121. D(B   4,B   3,B   1,B  10)      0.0000         0.010000   
    122. D(B   4,B   3,B   2,B   1)    120.0000         0.010000   
    123. D(B   2,B   3,B   1,B  11)     90.0000         0.010000   
    124. D(B   4,B   3,B   1,B   0)    -47.2695         0.010000   
    125. D(B   4,B   3,B   1,B   2)    -47.2695         0.010000   
    126. D(B   5,B   3,B   2,B   1)    120.0000         0.010000   
    127. D(B   2,B   3,B   1,B  10)     47.2695         0.010000   
    128. D(B   1,B   3,B   2,B   0)      0.0000         0.010000   
    129. D(B   2,B   3,B   1,B   0)      0.0000         0.010000   
    130. D(B   6,B   4,B   3,B   2)   -109.8327         0.010000   
    131. D(B   5,B   4,B   3,B   1)   -109.8327         0.010000   
    132. D(B   5,B   4,B   3,B   2)    180.0000         0.010000   
    133. D(B   3,B   4,B   2,B   1)    -47.2695         0.010000   
    134. D(B   2,B   4,B   3,B   1)     70.1673         0.010000   
    135. D(B   6,B   4,B   2,B   0)      0.0000         0.010000   
    136. D(B   5,B   4,B   2,B   1)    -47.2695         0.010000   
    137. D(B   2,B   4,B   3,B   5)    180.0000         0.010000   
    138. D(B   5,B   4,B   2,B   3)      0.0000         0.010000   
    139. D(B   5,B   4,B   2,B   0)    -90.0000         0.010000   
    140. D(B   6,B   4,B   3,B   1)    -39.6655         0.010000   
    141. D(B   3,B   4,B   2,B   0)    -90.0000         0.010000   
    142. D(B   7,B   5,B   4,B   2)    120.0000         0.010000   
    143. D(B   6,B   5,B   4,B   3)    120.0000         0.010000   
    144. D(B   6,B   5,B   4,B   2)    120.0000         0.010000   
    145. D(B   3,B   5,B   4,B   2)      0.0000         0.010000   
    146. D(B   7,B   5,B   3,B   2)    -90.0000         0.010000   
    147. D(B   6,B   5,B   3,B   4)    -47.2695         0.010000   
    148. D(B   3,B   5,B   4,B   6)   -120.0000         0.010000   
    149. D(B   6,B   5,B   3,B   1)     42.7305         0.010000   
    150. D(B   4,B   5,B   3,B   2)      0.0000         0.010000   
    151. D(B   6,B   5,B   3,B   2)    -47.2695         0.010000   
    152. D(B   7,B   5,B   4,B   3)    120.0000         0.010000   
    153. D(B   4,B   5,B   3,B   1)     90.0000         0.010000   
    154. D(B   4,B   6,B   5,B   3)     70.1673         0.010000   
    155. D(B   7,B   6,B   4,B   5)      0.0000         0.010000   
    156. D(B   5,B   6,B   4,B   3)    -47.2695         0.010000   
    157. D(B   7,B   6,B   4,B   2)    -90.0000         0.010000   
    158. D(B   5,B   6,B   4,B   2)    -90.0000         0.010000   
    159. D(B   8,B   6,B   4,B   2)      0.0000         0.010000   
    160. D(B   4,B   6,B   5,B   7)   -180.0000         0.010000   
    161. D(B   7,B   6,B   4,B   3)    -47.2695         0.010000   
    162. D(B   8,B   6,B   5,B   3)    -39.6655         0.010000   
    163. D(B   8,B   6,B   5,B   4)   -109.8327         0.010000   
    164. D(B   7,B   6,B   5,B   3)   -109.8327         0.010000   
    165. D(B   7,B   6,B   5,B   4)    180.0000         0.010000   
    166. D(B   9,B   7,B   6,B   4)    120.0000         0.010000   
    167. D(B   8,B   7,B   6,B   5)    120.0000         0.010000   
    168. D(B   8,B   7,B   6,B   4)    120.0000         0.010000   
    169. D(B   5,B   7,B   6,B   8)   -120.0000         0.010000   
    170. D(B   5,B   7,B   6,B   4)     -0.0000         0.010000   
    171. D(B   8,B   7,B   5,B   6)    -47.2695         0.010000   
    172. D(B   8,B   7,B   5,B   4)    -47.2695         0.010000   
    173. D(B   6,B   7,B   5,B   3)     90.0000         0.010000   
    174. D(B   8,B   7,B   5,B   3)     42.7305         0.010000   
    175. D(B   6,B   7,B   5,B   4)      0.0000         0.010000   
    176. D(B   9,B   7,B   6,B   5)    120.0000         0.010000   
    177. D(B   9,B   7,B   5,B   4)    -90.0000         0.010000   
    178. D(B  11,B   8,B   7,B   5)    -67.0883         0.010000   
    179. D(B  11,B   8,B   7,B   6)   -137.2555         0.010000   
    180. D(B  10,B   8,B   7,B   5)    -39.6655         0.010000   
    181. D(B  10,B   8,B   7,B   6)   -109.8327         0.010000   
    182. D(B   6,B   8,B   7,B   9)    180.0000         0.010000   
    183. D(B   6,B   8,B   7,B   5)     70.1673         0.010000   
    184. D(B  11,B   8,B   6,B   5)      0.0000         0.010000   
    185. D(B  11,B   8,B   6,B   4)    -42.7305         0.010000   
    186. D(B   7,B   8,B   6,B   5)    -47.2695         0.010000   
    187. D(B   7,B   8,B   6,B   4)    -90.0000         0.010000   
    188. D(B  10,B   8,B   7,B   9)     70.1673         0.010000   
    189. D(B  10,B   8,B   6,B   7)     90.0000         0.010000   
    190. D(B  10,B   8,B   6,B   5)     42.7305         0.010000   
    191. D(B  10,B   8,B   6,B   4)      0.0000         0.010000   
    192. D(B  11,B   9,B   8,B   7)    120.0000         0.010000   
    193. D(B  11,B   9,B   8,B   6)    120.0000         0.010000   
    194. D(B   7,B   9,B   8,B  11)   -120.0000         0.010000   
    195. D(B   7,B   9,B   8,B  10)   -120.0000         0.010000   
    196. D(B   7,B   9,B   8,B   6)      0.0000         0.010000   
    197. D(B  11,B   9,B   7,B   8)    -90.0000         0.010000   
    198. D(B  11,B   9,B   7,B   5)      0.0000         0.010000   
    199. D(B  11,B   9,B   7,B   6)    -90.0000         0.010000   
    200. D(B  11,B   9,B   8,B  10)      0.0000         0.010000   
    201. D(B   8,B   9,B   7,B   5)     90.0000         0.010000   
    202. D(B   8,B   9,B   7,B   6)      0.0000         0.010000   
    203. D(B   1,B  10,B   8,B   7)      0.0000         0.010000   
    204. D(B   1,B  10,B   8,B   6)    -42.7305         0.010000   
    205. D(B   0,B  10,B   8,B   9)     90.0000         0.010000   
    206. D(B   0,B  10,B   8,B   7)     42.7305         0.010000   
    207. D(B   0,B  10,B   8,B   6)      0.0000         0.010000   
    208. D(B   8,B  10,B   1,B   0)    109.8327         0.010000   
    209. D(B  11,B  10,B   1,B   3)    109.8327         0.010000   
    210. D(B  11,B  10,B   1,B   2)    137.2555         0.010000   
    211. D(B  11,B  10,B   1,B   0)    180.0000         0.010000   
    212. D(B   0,B  10,B   1,B  11)   -180.0000         0.010000   
    213. D(B   0,B  10,B   1,B   3)    -70.1673         0.010000   
    214. D(B   0,B  10,B   1,B   2)    -42.7445         0.010000   
    215. D(B   8,B  10,B   0,B   2)      0.0000         0.010000   
    216. D(B   0,B  10,B   8,B  11)     90.0000         0.010000   
    217. D(B   8,B  10,B   0,B   1)    -90.0000         0.010000   
    218. D(B  11,B  10,B   0,B   2)     90.0000         0.010000   
    219. D(B  11,B  10,B   0,B   1)      0.0000         0.010000   
    220. D(B   1,B  10,B   8,B  11)     47.2695         0.010000   
    221. D(B   1,B  10,B   0,B   2)     90.0000         0.010000   
    222. D(B   8,B  11,B   1,B   0)     47.2695         0.010000   
    223. D(B  10,B  11,B   1,B   3)    -90.0000         0.010000   
    224. D(B  10,B  11,B   1,B   2)    -47.2695         0.010000   
    225. D(B  10,B  11,B   1,B   0)      0.0000         0.010000   
    226. D(B   9,B  11,B  10,B   1)   -120.0000         0.010000   
    227. D(B   9,B  11,B  10,B   0)   -120.0000         0.010000   
    228. D(B   8,B  11,B  10,B   1)   -120.0000         0.010000   
    229. D(B   8,B  11,B  10,B   0)   -120.0000         0.010000   
    230. D(B   1,B  11,B  10,B   8)    120.0000         0.010000   
    231. D(B   8,B  11,B   9,B   7)     90.0000         0.010000   
    232. D(B   1,B  11,B   9,B   7)      0.0000         0.010000   
    233. D(B   1,B  11,B   9,B   8)    -90.0000         0.010000   
    234. D(B  10,B  11,B   9,B   7)     90.0000         0.010000   
    235. D(B  10,B  11,B   9,B   8)      0.0000         0.010000   
    236. D(B   1,B  11,B   8,B   9)    109.8327         0.010000   
    237. D(B   1,B  11,B   8,B   7)     67.0883         0.010000   
    238. D(B   1,B  11,B   8,B  10)    -70.1673         0.010000   
    239. D(B   1,B  11,B   8,B   6)     39.6655         0.010000   
    240. D(B   1,B  11,B  10,B   0)     -0.0000         0.010000   
    241. D(B  10,B  11,B   8,B   9)    180.0000         0.010000   
    242. D(B  10,B  11,B   8,B   7)    137.2555         0.010000   
    243. D(B  10,B  11,B   8,B   6)    109.8327         0.010000   
    244. D(B   8,B  11,B   1,B  10)     47.2695         0.010000   
    245. D(B   8,B  11,B   1,B   3)    -42.7305         0.010000   
    246. D(B   8,B  11,B   1,B   2)      0.0000         0.010000   
    -----------------------------------------------------------------

Number of atoms                         .... 12
Number of degrees of freedom            .... 246


         *************************************************************
         *                GEOMETRY OPTIMIZATION CYCLE   1            *
         *************************************************************
---------------------------------
CARTESIAN COORDINATES (ANGSTROEM)
---------------------------------
  B      3.750000   -0.000000    1.500000
  B      3.750000   -0.000000   -1.500000
  B      1.875000    3.247595    1.500000
  B      1.875000    3.247595   -1.500000
  B     -1.875000    3.247595    1.500000
  B     -1.875000    3.247595   -1.500000
  B     -3.750000    0.000000    1.500000
  B     -3.750000    0.000000   -1.500000
  B     -1.875000   -3.247595    1.500000
  B     -1.875000   -3.247595   -1.500000
  B      1.875000   -3.247595    1.500000
  B      1.875000   -3.247595   -1.500000

----------------------------
CARTESIAN COORDINATES (A.U.)
----------------------------
  NO LB      ZA    FRAG     MASS         X           Y           Z
   0 B     5.0000    0    10.810    7.086473   -0.000000    2.834589
   1 B     5.0000    0    10.810    7.086473   -0.000000   -2.834589
   2 B     5.0000    0    10.810    3.543237    6.137066    2.834589
   3 B     5.0000    0    10.810    3.543237    6.137066   -2.834589
   4 B     5.0000    0    10.810   -3.543237    6.137066    2.834589
   5 B     5.0000    0    10.810   -3.543237    6.137066   -2.834589
   6 B     5.0000    0    10.810   -7.086473    0.000000    2.834589
   7 B     5.0000    0    10.810   -7.086473    0.000000   -2.834589
   8 B     5.0000    0    10.810   -3.543237   -6.137066    2.834589
   9 B     5.0000    0    10.810   -3.543237   -6.137066   -2.834589
  10 B     5.0000    0    10.810    3.543237   -6.137066    2.834589
  11 B     5.0000    0    10.810    3.543237   -6.137066   -2.834589

--------------------------------
INTERNAL COORDINATES (ANGSTROEM)
--------------------------------
 B      0   0   0     0.000000000000     0.00000000     0.00000000
 B      1   0   0     3.000000000000     0.00000000     0.00000000
 B      1   2   0     3.749999996370    90.00000000     0.00000000
 B      3   1   2     3.000000000000    90.00000000     0.00000000
 B      3   1   2     3.750000000000   120.00000003    90.00000000
 B      5   3   1     3.000000000000    90.00000000   270.00000000
 B      5   3   1     3.749999996370   120.00000003     0.00000000
 B      7   5   3     3.000000000000    90.00000000   270.00000000
 B      7   5   3     3.749999996370   119.99999994     0.00000000
 B      9   7   5     3.000000000000    90.00000000   270.00000000
 B      1   2   3     3.749999996370    90.00000000   119.99999994
 B     11   1   2     3.000000000000    90.00000000     0.00000000

---------------------------
INTERNAL COORDINATES (A.U.)
---------------------------
 B      0   0   0     0.000000000000     0.00000000     0.00000000
 B      1   0   0     5.669178401764     0.00000000     0.00000000
 B      1   2   0     7.086472995345    90.00000000     0.00000000
 B      3   1   2     5.669178401764    90.00000000     0.00000000
 B      3   1   2     7.086473002205   120.00000003    90.00000000
 B      5   3   1     5.669178401764    90.00000000   270.00000000
 B      5   3   1     7.086472995345   120.00000003     0.00000000
 B      7   5   3     5.669178401764    90.00000000   270.00000000
 B      7   5   3     7.086472995345   119.99999994     0.00000000
 B      9   7   5     5.669178401764    90.00000000   270.00000000
 B      1   2   3     7.086472995345    90.00000000   119.99999994
 B     11   1   2     5.669178401764    90.00000000     0.00000000

---------------------
BASIS SET INFORMATION
---------------------
There are 1 groups of distinct atoms

 Group   1 Type B   : 7s4p1d contracted to 3s2p1d pattern {511/31/1}

Atom   0B    basis set group =>   1
Atom   1B    basis set group =>   1
Atom   2B    basis set group =>   1
Atom   3B    basis set group =>   1
Atom   4B    basis set group =>   1
Atom   5B    basis set group =>   1
Atom   6B    basis set group =>   1
Atom   7B    basis set group =>   1
Atom   8B    basis set group =>   1
Atom   9B    basis set group =>   1
Atom  10B    basis set group =>   1
Atom  11B    basis set group =>   1
---------------------------------
AUXILIARY/J BASIS SET INFORMATION
---------------------------------
There are 1 groups of distinct atoms

 Group   1 Type B   : 12s5p4d2f1g contracted to 6s4p3d1f1g pattern {711111/2111/211/2/1}

Atom   0B    basis set group =>   1
Atom   1B    basis set group =>   1
Atom   2B    basis set group =>   1
Atom   3B    basis set group =>   1
Atom   4B    basis set group =>   1
Atom   5B    basis set group =>   1
Atom   6B    basis set group =>   1
Atom   7B    basis set group =>   1
Atom   8B    basis set group =>   1
Atom   9B    basis set group =>   1
Atom  10B    basis set group =>   1
Atom  11B    basis set group =>   1


           ************************************************************
           *        Program running with 8 parallel MPI-processes     *
           *              working on a common directory               *
           ************************************************************
------------------------------------------------------------------------------
                             ORCA STARTUP CALCULATIONS
                           -- RI-GTO INTEGRALS CHOSEN --
------------------------------------------------------------------------------
------------------------------------------------------------------------------
                   ___                                                        
                  /   \      - P O W E R E D   B Y -                         
                 /     \                                                     
                 |  |  |   _    _      __       _____    __    __             
                 |  |  |  | |  | |    /  \     |  _  \  |  |  /  |          
                  \  \/   | |  | |   /    \    | | | |  |  | /  /          
                 / \  \   | |__| |  /  /\  \   | |_| |  |  |/  /          
                |  |  |   |  __  | /  /__\  \  |    /   |      \           
                |  |  |   | |  | | |   __   |  |    \   |  |\   \          
                \     /   | |  | | |  |  |  |  | |\  \  |  | \   \       
                 \___/    |_|  |_| |__|  |__|  |_| \__\ |__|  \__/        
                                                                              
                      - O R C A' S   B I G   F R I E N D -                    
                                      &                                       
                       - I N T E G R A L  F E E D E R -                       
                                                                              
 v1 FN, 2020, v2 2021, v3 2022-2024                                           
------------------------------------------------------------------------------


----------------------
SHARK INTEGRAL PACKAGE
----------------------

Number of atoms                             ...     12
Number of basis functions                   ...    168
Number of shells                            ...     72
Maximum angular momentum                    ...      2
Integral batch strategy                     ... SHARK/LIBINT Hybrid
RI-J (if used) integral strategy            ... SPLIT-RIJ (Revised 2003 algorithm where possible)
Printlevel                                  ...      1
Contraction scheme used                     ... SEGMENTED contraction
Prescreening option                         ... SCHWARTZ
   Thresh                                   ... 2.500e-11
   Tcut                                     ... 2.500e-12
   Tpresel                                  ... 2.500e-12 
Coulomb Range Separation                    ... NOT USED
Exchange Range Separation                   ... NOT USED
Multipole approximations                    ... NOT USED
Finite Nucleus Model                        ... NOT USED
CABS basis                                  ... NOT available
Auxiliary Coulomb fitting basis             ... AVAILABLE
   # of basis functions in Aux-J            ...    588
   # of shells in Aux-J                     ...    180
   Maximum angular momentum in Aux-J        ...      4
Auxiliary J/K fitting basis                 ... NOT available
Auxiliary Correlation fitting basis         ... NOT available
Auxiliary 'external' fitting basis          ... NOT available

Checking pre-screening integrals            ... done (  0.0 sec) Dimension = 72
   => SHARK Basis and OBASIS are compatible. Storing Pre-screening
Shell pair information
Shell pair cut-off parameter TPreSel        ...   2.5e-12
Total number of shell pairs                 ...      2628
Shell pairs after pre-screening             ...      2136
Total number of primitive shell pairs       ...     10596
Primitive shell pairs kept                  ...      5466
          la=0 lb=0:    522 shell pairs
          la=1 lb=0:    768 shell pairs
          la=1 lb=1:    276 shell pairs
          la=2 lb=0:    288 shell pairs
          la=2 lb=1:    240 shell pairs
          la=2 lb=2:     42 shell pairs

Checking whether 4 symmetric matrices of dimension 168 fit in memory
:Max Core in MB      =   2500.00
 MB in use           =      6.09
 MB left             =   2493.91
 MB needed           =      0.43
 Data fit in memory  = YES
Calculating RI/J V-Matrix + Cholesky decomp.... done (  0.0 sec)
Calculating Nuclear repulsion               ... done (  0.0 sec) ENN=    168.891379549525 Eh

Diagonalization of the overlap matrix:
Smallest eigenvalue                        ... 3.062e-02
Time for diagonalization                   ...    0.004 sec
Threshold for overlap eigenvalues          ... 1.000e-07
Number of eigenvalues below threshold      ... 0
Time for construction of square roots      ...    0.004 sec
Total time needed                          ...    0.009 sec

-------------------
DFT GRID GENERATION
-------------------

General Integration Accuracy     IntAcc      ... 4.388
Radial Grid Type                 RadialGrid  ... OptM3 with GC (2021)
Angular Grid (max. ang.)         AngularGrid ... 4 (Lebedev-302)
Angular grid pruning method      GridPruning ... 4 (adaptive)
Weight generation scheme         WeightScheme... mBecke (2022)
Basis function cutoff            BFCut       ... 1.0000e-11
Integration weight cutoff        WCut        ... 1.0000e-14
Partially contracted basis set               ... off
Rotationally invariant grid construction     ... off
Angular grids for H and He will be reduced by one unit

Total number of grid points                  ...    73464
Total number of batches                      ...     1152
Average number of points per batch           ...       63
Average number of grid points per atom       ...     6122
Grids setup in   0.7 sec
Initializing property integral containers    ... done (  0.0 sec)

SHARK setup successfully completed in   0.9 seconds

Maximum memory used throughout the entire STARTUP-calculation: 19.3 MB


           ************************************************************
           *        Program running with 8 parallel MPI-processes     *
           *              working on a common directory               *
           ************************************************************
-------------------------------------------------------------------------------
                                 ORCA GUESS
                   Start orbitals & Density for SCF / CASSCF
-------------------------------------------------------------------------------

------------
SCF SETTINGS
------------
Hamiltonian:
 Density Functional     Method          .... DFT(GTOs)
 Exchange Functional    Exchange        .... B88
   X-Alpha parameter    XAlpha          ....  0.666667
   Becke's b parameter  XBeta           ....  0.004200
 Correlation Functional Correlation     .... P86
 LDA part of GGA corr.  LDAOpt          .... PW91-LDA
 Gradients option       PostSCFGGA      .... off
   NL short-range parameter             ....  4.400000
 RI-approximation to the Coulomb term is turned on
   Number of AuxJ basis functions       .... 588


General Settings:
 Integral files         IntName         .... hex_prism_nn3.00
 Hartree-Fock type      HFTyp           .... RHF
 Total Charge           Charge          ....    0
 Multiplicity           Mult            ....    1
 Number of Electrons    NEL             ....   60
 Basis Dimension        Dim             ....  168
 Nuclear Repulsion      ENuc            ....    168.8913795495 Eh

Convergence Acceleration:
 AO-DIIS                CNVDIIS         .... on
   Start iteration      DIISMaxIt       ....     0
   Startup error        DIISStart       ....  0.200000
   # of expansion vecs  DIISMaxEq       ....     5
   Bias factor          DIISBfac        ....   1.050
   Max. coefficient     DIISMaxC        ....  10.000
 MO-DIIS                CNVKDIIS        .... off
 Trust-Rad. Augm. Hess. CNVTRAH         .... auto
   Auto Start mean grad. ratio tolernc. ....  1.125000
   Auto Start start iteration           ....    50
   Auto Start num. interpolation iter.  ....    10
   Max. Number of Micro iterations      ....    24
   Max. Number of Macro iterations      .... Maxiter - #DIIS iter
   Number of Davidson start vectors     ....     2
   Converg. threshold    (grad. norm)   ....   1.000e-05
   Grad. Scal. Fac. for Micro threshold ....   0.100
   Minimum threshold for Micro iter.    ....   1.000e-02
   NR start threshold (gradient norm)   ....   1.000e-04
   Initial trust radius                 ....   0.400
   Minimum AH scaling param. (alpha)    ....   1.000
   Maximum AH scaling param. (alpha)    .... 1000.000
   Quad. conv. algorithm                .... NR
   White noise on init. David. guess    .... on
   Maximum white noise                  ....   0.010
   Pseudo random numbers                .... off
   Inactive MOs                         .... canonical
   Orbital update algorithm             .... Taylor
   Preconditioner                       .... Diag
   Full preconditioner red. dimension   ....   250
 SOSCF                 CNVSOSCF           .... on
   Start iteration     SOSCFMaxIt         ....   150
   Startup grad/error  SOSCFStart         ....  0.001000
   Hessian update      SOSCFHessUp        .... L-BFGS
   Autom. constraints  SOSCFAutoConstrain .... off
 Level Shifting         CNVShift        .... on
   Level shift para.    LevelShift      ....    0.2500
   Turn off err/grad.   ShiftErr        ....    0.0000
 Zerner damping         CNVZerner       .... off
 Static damping         CNVDamp         .... on
   Fraction old density DampFac         ....    0.8500
   Max. Damping (<1)    DampMax         ....    0.9800
   Min. Damping (>=0)   DampMin         ....    0.0000
   Turn off err/grad.   DampErr         ....    0.0300

SCF Procedure:
 Maximum # iterations   MaxIter         ....   125
 SCF integral mode      SCFMode         .... Direct
   Integral package                     .... SHARK and LIBINT hybrid scheme
 Reset frequency        DirectResetFreq ....    20
 Integral Threshold     Thresh          ....  2.500e-11 Eh
 Primitive CutOff       TCut            ....  2.500e-12 Eh

Convergence Tolerance:
 Convergence Check Mode ConvCheckMode   .... Total+1el-Energy
 Convergence forced     ConvForced      .... 0
 Energy Change          TolE            ....  1.000e-08 Eh
 1-El. energy change                    ....  1.000e-05 Eh
 Orbital Gradient       TolG            ....  1.000e-05
 Orbital Rotation angle TolX            ....  1.000e-05
 DIIS Error             TolErr          ....  5.000e-07

------------------------------
INITIAL GUESS: MODEL POTENTIAL
------------------------------
Loading Hartree-Fock densities                     ... done
Calculating cut-offs                               ... done
Initializing the effective Hamiltonian             ... done
Setting up the integral package (SHARK)            ... done
Starting the Coulomb interaction                   ... done (   0.0 sec)
Making the grid                                    ... done (   0.2 sec)
Mapping shells                                     ... done
Starting the XC term evaluation                    ... done (   0.0 sec)
  promolecular density results
     # of electrons  =     60.000307598
     EX              =    -44.202964506
     EC              =     -1.610386277
     EX+EC           =    -45.813350782
Transforming the Hamiltonian                       ... done (   0.0 sec)
Diagonalizing the Hamiltonian                      ... done (   0.0 sec)
Back transforming the eigenvectors                 ... done (   0.0 sec)
Now organizing SCF variables                       ... done
                      ------------------
                      INITIAL GUESS DONE (   0.3 sec)
                      ------------------
             **** ENERGY FILE WAS UPDATED (hex_prism_nn3.00.en.tmp) ****
Finished Guess after   0.7 sec
Maximum memory used throughout the entire GUESS-calculation: 8.8 MB


           ************************************************************
           *        Program running with 8 parallel MPI-processes     *
           *              working on a common directory               *
           ************************************************************

-------------------------------------------------------------------------------------------
                                      ORCA LEAN-SCF
                              memory conserving SCF solver
-------------------------------------------------------------------------------------------

----------------------------------------D-I-I-S--------------------------------------------
Iteration    Energy (Eh)           Delta-E    RMSDP     MaxDP     DIISErr   Damp  Time(sec)
-------------------------------------------------------------------------------------------
               ***  Starting incremental Fock matrix formation  ***
    1    -295.6751365273568126     0.00e+00  7.77e-04  6.99e-03  7.66e-03  0.850   0.2
Warning: op=0 Small HOMO/LUMO gap (  -0.000) - skipping pre-diagonalization
         Will do a full diagonalization
    2    -295.6757573171463491    -6.21e-04  9.24e-04  8.32e-03  6.58e-03  0.850   0.5
                               ***Turning on AO-DIIS***
    3    -295.6763095374218437    -5.52e-04  6.53e-04  5.98e-03  5.25e-03  0.850   0.3
    4    -295.6767337805117677    -4.24e-04  3.27e-03  3.01e-02  4.30e-03  0.000   0.3
                              *** Initializing SOSCF ***
---------------------------------------S-O-S-C-F--------------------------------------
Iteration    Energy (Eh)           Delta-E    RMSDP     MaxDP     MaxGrad    Time(sec)
--------------------------------------------------------------------------------------
    5    -295.6786416928064227    -1.91e-03  2.86e-04  3.46e-03  6.87e-04     0.2
               *** Restarting incremental Fock matrix formation ***
    6    -295.6786647690585141    -2.31e-05  3.04e-04  1.59e-03  5.91e-04     0.2
    7    -295.6786618990065563     2.87e-06  2.62e-04  1.20e-03  1.12e-03     0.2
    8    -295.6787012048464476    -3.93e-05  3.73e-04  8.82e-04  2.72e-04     0.2
    9    -295.6787215331331709    -2.03e-05  4.32e-04  9.76e-04  2.27e-04     0.3
   10    -295.6787335193433819    -1.20e-05  2.52e-04  6.22e-04  2.34e-04     0.2
   11    -295.6787388898804920    -5.37e-06  3.25e-04  7.87e-04  2.04e-04     0.2
   12    -295.6787447487791951    -5.86e-06  2.80e-04  6.14e-04  2.03e-04     0.2
   13    -295.6787488902911036    -4.14e-06  1.49e-04  2.75e-04  1.35e-04     0.2
   14    -295.6787506276427848    -1.74e-06  5.99e-05  1.31e-04  6.03e-05     0.2
   15    -295.6787512404920335    -6.13e-07  7.20e-05  2.00e-04  4.60e-05     0.2
   16    -295.6787518319019910    -5.91e-07  1.11e-04  2.61e-04  6.78e-05     0.2
   17    -295.6787524619657006    -6.30e-07  7.25e-05  1.64e-04  6.71e-05     0.2
   18    -295.6787527082911993    -2.46e-07  2.09e-05  4.38e-05  3.22e-05     0.2
   19    -295.6787527398907969    -3.16e-08  9.31e-06  5.02e-05  1.13e-05     0.2
   20    -295.6787527284241150     1.15e-08  6.59e-06  3.05e-05  3.33e-05     0.3
   21    -295.6787527439175847    -1.55e-08  1.33e-06  4.14e-06  2.51e-06     0.2
   22    -295.6787527470104351    -3.09e-09  1.87e-06  4.78e-06  4.49e-06     0.2
                 **** Energy Check signals convergence ****

               *****************************************************
               *                     SUCCESS                       *
               *           SCF CONVERGED AFTER  22 CYCLES          *
               *****************************************************

             **** ENERGY FILE WAS UPDATED (hex_prism_nn3.00.en.tmp) ****

----------------
TOTAL SCF ENERGY
----------------

Total Energy       :       -295.67875274810581 Eh           -8045.82790 eV

Components:
Nuclear Repulsion  :        168.89137954952545 Eh            4595.76808 eV
Electronic Energy  :       -464.57013229763129 Eh          -12641.59599 eV
One Electron Energy:       -725.47490187680080 Eh          -19741.17570 eV
Two Electron Energy:        260.90476957916951 Eh            7099.57972 eV

Virial components:
Potential Energy   :       -588.20277610013000 Eh          -16005.81126 eV
Kinetic Energy     :        292.52402335202419 Eh            7959.98335 eV
Virial Ratio       :          2.01078451390054

DFT components:
N(Alpha)           :       30.000005090414 electrons
N(Beta)            :       30.000005090414 electrons
N(Total)           :       60.000010180827 electrons
E(X)               :      -44.387062724371 Eh       
E(C)               :       -1.641046526162 Eh       
E(XC)              :      -46.028109250533 Eh       

---------------
SCF CONVERGENCE
---------------

  Last Energy change         ...    3.0929e-09  Tolerance :   1.0000e-08
  Last MAX-Density change    ...    4.7844e-06  Tolerance :   1.0000e-07
  Last RMS-Density change    ...    1.8741e-06  Tolerance :   5.0000e-09
  Last DIIS Error            ...    6.8663e-04  Tolerance :   5.0000e-07
  Last Orbital Gradient      ...    4.4860e-06  Tolerance :   1.0000e-05
  Last Orbital Rotation      ...    4.4011e-05  Tolerance :   1.0000e-05


----------------
ORBITAL ENERGIES
----------------

  NO   OCC          E(Eh)            E(eV) 
   0   2.0000      -6.662800      -181.3040 
   1   2.0000      -6.662725      -181.3020 
   2   2.0000      -6.662721      -181.3019 
   3   2.0000      -6.662717      -181.3018 
   4   2.0000      -6.662664      -181.3003 
   5   2.0000      -6.662660      -181.3002 
   6   2.0000      -6.662641      -181.2997 
   7   2.0000      -6.662637      -181.2996 
   8   2.0000      -6.662603      -181.2986 
   9   2.0000      -6.662590      -181.2983 
  10   2.0000      -6.662586      -181.2982 
  11   2.0000      -6.662551      -181.2972 
  12   2.0000      -0.379376       -10.3234 
  13   2.0000      -0.373940       -10.1754 
  14   2.0000      -0.373935       -10.1753 
  15   2.0000      -0.362134        -9.8542 
  16   2.0000      -0.362129        -9.8540 
  17   2.0000      -0.355504        -9.6738 
  18   2.0000      -0.341343        -9.2884 
  19   2.0000      -0.336295        -9.1510 
  20   2.0000      -0.336290        -9.1509 
  21   2.0000      -0.325357        -8.8534 
  22   2.0000      -0.325353        -8.8533 
  23   2.0000      -0.319260        -8.6875 
  24   2.0000      -0.178628        -4.8607 
  25   2.0000      -0.175949        -4.7878 
  26   2.0000      -0.171688        -4.6719 
  27   2.0000      -0.171685        -4.6718 
  28   2.0000      -0.167816        -4.5665 
  29   2.0000      -0.167812        -4.5664 
  30   0.0000      -0.167835        -4.5670 
  31   0.0000      -0.162819        -4.4305 
  32   0.0000      -0.162816        -4.4304 
  33   0.0000      -0.162638        -4.4256 
  34   0.0000      -0.162634        -4.4255 
  35   0.0000      -0.158322        -4.3082 
  36   0.0000      -0.149958        -4.0806 
  37   0.0000      -0.140717        -3.8291 
  38   0.0000      -0.140712        -3.8290 
  39   0.0000      -0.140076        -3.8117 
  40   0.0000      -0.136133        -3.7044 
*Only the first 10 virtual orbitals were printed.

                    ********************************
                    * MULLIKEN POPULATION ANALYSIS *
                    ********************************

-----------------------
MULLIKEN ATOMIC CHARGES
-----------------------
   0 B :   -0.000024
   1 B :   -0.000024
   2 B :    0.000009
   3 B :    0.000009
   4 B :    0.000012
   5 B :    0.000012
   6 B :   -0.000017
   7 B :   -0.000017
   8 B :    0.000012
   9 B :    0.000012
  10 B :    0.000009
  11 B :    0.000009
Sum of atomic charges:   -0.0000000

--------------------------------
MULLIKEN REDUCED ORBITAL CHARGES
--------------------------------
  0 B s       :     3.962692  s :     3.962692
      pz      :     0.530682  p :     1.036298
      px      :     0.059566
      py      :     0.446050
      dz2     :     0.000782  d :     0.001034
      dxz     :     0.000017
      dyz     :     0.000101
      dx2y2   :     0.000051
      dxy     :     0.000083

  1 B s       :     3.962692  s :     3.962692
      pz      :     0.530682  p :     1.036298
      px      :     0.059566
      py      :     0.446050
      dz2     :     0.000782  d :     0.001034
      dxz     :     0.000017
      dyz     :     0.000101
      dx2y2   :     0.000051
      dxy     :     0.000083

  2 B s       :     3.962695  s :     3.962695
      pz      :     0.530979  p :     1.036261
      px      :     0.349153
      py      :     0.156130
      dz2     :     0.000782  d :     0.001034
      dxz     :     0.000080
      dyz     :     0.000038
      dx2y2   :     0.000075
      dxy     :     0.000059

  3 B s       :     3.962695  s :     3.962695
      pz      :     0.530979  p :     1.036261
      px      :     0.349153
      py      :     0.156130
      dz2     :     0.000782  d :     0.001034
      dxz     :     0.000080
      dyz     :     0.000038
      dx2y2   :     0.000075
      dxy     :     0.000059

  4 B s       :     3.962695  s :     3.962695
      pz      :     0.530978  p :     1.036259
      px      :     0.349151
      py      :     0.156130
      dz2     :     0.000782  d :     0.001034
      dxz     :     0.000080
      dyz     :     0.000038
      dx2y2   :     0.000075
      dxy     :     0.000059

  5 B s       :     3.962695  s :     3.962695
      pz      :     0.530978  p :     1.036259
      px      :     0.349151
      py      :     0.156130
      dz2     :     0.000782  d :     0.001034
      dxz     :     0.000080
      dyz     :     0.000038
      dx2y2   :     0.000075
      dxy     :     0.000059

  6 B s       :     3.962692  s :     3.962692
      pz      :     0.530679  p :     1.036291
      px      :     0.059565
      py      :     0.446048
      dz2     :     0.000782  d :     0.001034
      dxz     :     0.000017
      dyz     :     0.000101
      dx2y2   :     0.000051
      dxy     :     0.000083

  7 B s       :     3.962692  s :     3.962692
      pz      :     0.530679  p :     1.036291
      px      :     0.059565
      py      :     0.446048
      dz2     :     0.000782  d :     0.001034
      dxz     :     0.000017
      dyz     :     0.000101
      dx2y2   :     0.000051
      dxy     :     0.000083

  8 B s       :     3.962695  s :     3.962695
      pz      :     0.530978  p :     1.036259
      px      :     0.349151
      py      :     0.156130
      dz2     :     0.000782  d :     0.001034
      dxz     :     0.000080
      dyz     :     0.000038
      dx2y2   :     0.000075
      dxy     :     0.000059

  9 B s       :     3.962695  s :     3.962695
      pz      :     0.530978  p :     1.036259
      px      :     0.349151
      py      :     0.156130
      dz2     :     0.000782  d :     0.001034
      dxz     :     0.000080
      dyz     :     0.000038
      dx2y2   :     0.000075
      dxy     :     0.000059

 10 B s       :     3.962695  s :     3.962695
      pz      :     0.530979  p :     1.036261
      px      :     0.349153
      py      :     0.156130
      dz2     :     0.000782  d :     0.001034
      dxz     :     0.000080
      dyz     :     0.000038
      dx2y2   :     0.000075
      dxy     :     0.000059

 11 B s       :     3.962695  s :     3.962695
      pz      :     0.530979  p :     1.036261
      px      :     0.349153
      py      :     0.156130
      dz2     :     0.000782  d :     0.001034
      dxz     :     0.000080
      dyz     :     0.000038
      dx2y2   :     0.000075
      dxy     :     0.000059



                     *******************************
                     * LOEWDIN POPULATION ANALYSIS *
                     *******************************

----------------------
LOEWDIN ATOMIC CHARGES
----------------------
   0 B :   -0.000030
   1 B :   -0.000030
   2 B :    0.000012
   3 B :    0.000012
   4 B :    0.000014
   5 B :    0.000014
   6 B :   -0.000023
   7 B :   -0.000023
   8 B :    0.000014
   9 B :    0.000014
  10 B :    0.000012
  11 B :    0.000012

-------------------------------
LOEWDIN REDUCED ORBITAL CHARGES
-------------------------------
  0 B s       :     3.922261  s :     3.922261
      pz      :     0.561058  p :     1.076326
      px      :     0.062337
      py      :     0.452931
      dz2     :     0.001142  d :     0.001443
      dxz     :     0.000019
      dyz     :     0.000114
      dx2y2   :     0.000063
      dxy     :     0.000105

  1 B s       :     3.922261  s :     3.922261
      pz      :     0.561058  p :     1.076326
      px      :     0.062337
      py      :     0.452931
      dz2     :     0.001142  d :     0.001443
      dxz     :     0.000019
      dyz     :     0.000114
      dx2y2   :     0.000063
      dxy     :     0.000105

  2 B s       :     3.922263  s :     3.922263
      pz      :     0.561352  p :     1.076281
      px      :     0.355004
      py      :     0.159926
      dz2     :     0.001142  d :     0.001443
      dxz     :     0.000090
      dyz     :     0.000043
      dx2y2   :     0.000094
      dxy     :     0.000073

  3 B s       :     3.922263  s :     3.922263
      pz      :     0.561352  p :     1.076281
      px      :     0.355004
      py      :     0.159926
      dz2     :     0.001142  d :     0.001443
      dxz     :     0.000090
      dyz     :     0.000043
      dx2y2   :     0.000094
      dxy     :     0.000073

  4 B s       :     3.922263  s :     3.922263
      pz      :     0.561351  p :     1.076279
      px      :     0.355003
      py      :     0.159926
      dz2     :     0.001142  d :     0.001443
      dxz     :     0.000090
      dyz     :     0.000043
      dx2y2   :     0.000094
      dxy     :     0.000073

  5 B s       :     3.922263  s :     3.922263
      pz      :     0.561351  p :     1.076279
      px      :     0.355003
      py      :     0.159926
      dz2     :     0.001142  d :     0.001443
      dxz     :     0.000090
      dyz     :     0.000043
      dx2y2   :     0.000094
      dxy     :     0.000073

  6 B s       :     3.922261  s :     3.922261
      pz      :     0.561055  p :     1.076319
      px      :     0.062336
      py      :     0.452929
      dz2     :     0.001142  d :     0.001443
      dxz     :     0.000019
      dyz     :     0.000114
      dx2y2   :     0.000063
      dxy     :     0.000105

  7 B s       :     3.922261  s :     3.922261
      pz      :     0.561055  p :     1.076319
      px      :     0.062336
      py      :     0.452929
      dz2     :     0.001142  d :     0.001443
      dxz     :     0.000019
      dyz     :     0.000114
      dx2y2   :     0.000063
      dxy     :     0.000105

  8 B s       :     3.922263  s :     3.922263
      pz      :     0.561351  p :     1.076279
      px      :     0.355003
      py      :     0.159926
      dz2     :     0.001142  d :     0.001443
      dxz     :     0.000090
      dyz     :     0.000043
      dx2y2   :     0.000094
      dxy     :     0.000073

  9 B s       :     3.922263  s :     3.922263
      pz      :     0.561351  p :     1.076279
      px      :     0.355003
      py      :     0.159926
      dz2     :     0.001142  d :     0.001443
      dxz     :     0.000090
      dyz     :     0.000043
      dx2y2   :     0.000094
      dxy     :     0.000073

 10 B s       :     3.922263  s :     3.922263
      pz      :     0.561352  p :     1.076281
      px      :     0.355004
      py      :     0.159926
      dz2     :     0.001142  d :     0.001443
      dxz     :     0.000090
      dyz     :     0.000043
      dx2y2   :     0.000094
      dxy     :     0.000073

 11 B s       :     3.922263  s :     3.922263
      pz      :     0.561352  p :     1.076281
      px      :     0.355004
      py      :     0.159926
      dz2     :     0.001142  d :     0.001443
      dxz     :     0.000090
      dyz     :     0.000043
      dx2y2   :     0.000094
      dxy     :     0.000073



                      *****************************
                      * MAYER POPULATION ANALYSIS *
                      *****************************

  NA   - Mulliken gross atomic population
  ZA   - Total nuclear charge
  QA   - Mulliken gross atomic charge
  VA   - Mayer's total valence
  BVA  - Mayer's bonded valence
  FA   - Mayer's free valence

  ATOM       NA         ZA         QA         VA         BVA        FA
  0 B      5.0000     5.0000    -0.0000     1.6536     1.6536    -0.0000
  1 B      5.0000     5.0000    -0.0000     1.6536     1.6536    -0.0000
  2 B      5.0000     5.0000     0.0000     1.6531     1.6531    -0.0000
  3 B      5.0000     5.0000     0.0000     1.6531     1.6531    -0.0000
  4 B      5.0000     5.0000     0.0000     1.6531     1.6531    -0.0000
  5 B      5.0000     5.0000     0.0000     1.6531     1.6531    -0.0000
  6 B      5.0000     5.0000    -0.0000     1.6535     1.6535     0.0000
  7 B      5.0000     5.0000    -0.0000     1.6535     1.6535    -0.0000
  8 B      5.0000     5.0000     0.0000     1.6531     1.6531    -0.0000
  9 B      5.0000     5.0000     0.0000     1.6531     1.6531    -0.0000
 10 B      5.0000     5.0000     0.0000     1.6531     1.6531    -0.0000
 11 B      5.0000     5.0000     0.0000     1.6531     1.6531    -0.0000

  Mayer bond orders larger than 0.100000
B(  0-B ,  1-B ) :   0.5201 B(  0-B ,  2-B ) :   0.2492 B(  0-B ,  3-B ) :   0.2260 
B(  0-B , 10-B ) :   0.2492 B(  0-B , 11-B ) :   0.2260 B(  1-B ,  2-B ) :   0.2260 
B(  1-B ,  3-B ) :   0.2492 B(  1-B , 10-B ) :   0.2260 B(  1-B , 11-B ) :   0.2492 
B(  2-B ,  3-B ) :   0.5204 B(  2-B ,  4-B ) :   0.2490 B(  2-B ,  5-B ) :   0.2259 
B(  3-B ,  4-B ) :   0.2259 B(  3-B ,  5-B ) :   0.2490 B(  4-B ,  5-B ) :   0.5204 
B(  4-B ,  6-B ) :   0.2492 B(  4-B ,  7-B ) :   0.2260 B(  5-B ,  6-B ) :   0.2260 
B(  5-B ,  7-B ) :   0.2492 B(  6-B ,  7-B ) :   0.5201 B(  6-B ,  8-B ) :   0.2492 
B(  6-B ,  9-B ) :   0.2260 B(  7-B ,  8-B ) :   0.2260 B(  7-B ,  9-B ) :   0.2492 
B(  8-B ,  9-B ) :   0.5204 B(  8-B , 10-B ) :   0.2490 B(  8-B , 11-B ) :   0.2259 
B(  9-B , 10-B ) :   0.2259 B(  9-B , 11-B ) :   0.2490 B( 10-B , 11-B ) :   0.5204 


-------
TIMINGS
-------

Total SCF time: 0 days 0 hours 0 min 5 sec 

Total time                  ....       5.875 sec
Sum of individual times     ....       5.716 sec  ( 97.3%)

SCF preparation             ....       0.623 sec  ( 10.6%)
Fock matrix formation       ....       3.969 sec  ( 67.6%)
  Startup                   ....       0.012 sec  (  0.3% of F)
  Split-RI-J                ....       1.408 sec  ( 35.5% of F)
  XC integration            ....       2.181 sec  ( 54.9% of F)
    XC Preparation          ....       0.000 sec  (  0.0% of XC)
    Basis function eval.    ....       0.513 sec  ( 23.5% of XC)
    Density eval.           ....       0.238 sec  ( 10.9% of XC)
    XC-Functional eval.     ....       0.124 sec  (  5.7% of XC)
    XC-Potential eval.      ....       0.170 sec  (  7.8% of XC)
Diagonalization             ....       0.000 sec  (  0.0%)
Density matrix formation    ....       0.138 sec  (  2.3%)
Total Energy calculation    ....       0.065 sec  (  1.1%)
Population analysis         ....       0.033 sec  (  0.6%)
Orbital Transformation      ....       0.155 sec  (  2.6%)
Orbital Orthonormalization  ....       0.000 sec  (  0.0%)
DIIS solution               ....       0.331 sec  (  5.6%)
SOSCF solution              ....       0.401 sec  (  6.8%)
Finished LeanSCF after   5.9 sec

Maximum memory used throughout the entire LEANSCF-calculation: 8.4 MB


-------------------------------------------------------------------------------
                          DFT DISPERSION CORRECTION                            
                                                                               
                              DFTD3 V3.1  Rev 1                                
                          USING Becke-Johnson damping                          
-------------------------------------------------------------------------------
The BP86 functional is recognized
Active option DFTDOPT                   ...         4   

molecular C6(AA) [au] = 15313.330508 


            DFT-D V3
 parameters
 s6 scaling factor         :     1.0000 
 a1 scaling factor         :     0.3946 
 s8 scaling factor         :     3.2822 
 a2 scaling factor         :     4.8516 
 ad hoc parameters k1-k3   :    16.0000     1.3333    -4.0000 

 Edisp/kcal,au: -21.327838175467  -0.033988069953 
 E6   /kcal   :  -6.485640976 
 E8   /kcal   : -14.842197199 
 % E8         :  69.590724935 

-------------------------   ----------------
Dispersion correction           -0.033988070
-------------------------   ----------------


-------------------------   --------------------
FINAL SINGLE POINT ENERGY      -295.712740818058
-------------------------   --------------------



           ************************************************************
           *        Program running with 8 parallel MPI-processes     *
           *              working on a common directory               *
           ************************************************************
------------------------------------------------------------------------------
                         ORCA SCF GRADIENT CALCULATION
------------------------------------------------------------------------------

Nuc. rep. gradient        (SHARK) ... done (  0.0 sec)
HCore & Overlap gradient  (SHARK) ... done (  0.0 sec)
Split-RIJ-J gradient      (SHARK) ... done (  0.2 sec)
XC gradient                       ... done (  0.5 sec)
Dispersion correction             ... done (  0.0 sec)

-------------------
DISPERSION GRADIENT
-------------------

   1   B   :    0.000897532   -0.000000000    0.000678702
   2   B   :    0.000897532    0.000000000   -0.000678702
   3   B   :    0.000448766    0.000777285    0.000678702
   4   B   :    0.000448766    0.000777285   -0.000678702
   5   B   :   -0.000448766    0.000777285    0.000678702
   6   B   :   -0.000448766    0.000777285   -0.000678702
   7   B   :   -0.000897532    0.000000000    0.000678702
   8   B   :   -0.000897532    0.000000000   -0.000678702
   9   B   :   -0.000448766   -0.000777285    0.000678702
  10   B   :   -0.000448766   -0.000777285   -0.000678702
  11   B   :    0.000448766   -0.000777285    0.000678702
  12   B   :    0.000448766   -0.000777285   -0.000678702

Difference to translation invariance:
           :    0.0000000000   -0.0000000000    0.0000000000

Difference to rotation invariance:
           :    0.0000000000    0.0000000000    0.0000000000

Norm of the Dispersion gradient    ...    0.0038979993
RMS gradient                       ...    0.0006496666
MAX gradient                       ...    0.0008975316

------------------
CARTESIAN GRADIENT
------------------

   1   B   :    0.007930752    0.000000001    0.023047252
   2   B   :    0.007930750    0.000000001   -0.023047250
   3   B   :    0.003964854    0.006873375    0.023048587
   4   B   :    0.003964858    0.006873376   -0.023048586
   5   B   :   -0.003964865    0.006873361    0.023048562
   6   B   :   -0.003964867    0.006873363   -0.023048564
   7   B   :   -0.007930732    0.000000001    0.023047185
   8   B   :   -0.007930731    0.000000002   -0.023047186
   9   B   :   -0.003964866   -0.006873363    0.023048565
  10   B   :   -0.003964870   -0.006873363   -0.023048565
  11   B   :    0.003964861   -0.006873377    0.023048588
  12   B   :    0.003964856   -0.006873376   -0.023048589

Difference to translation invariance:
           :   -0.0000000000    0.0000000000    0.0000000000

Difference to rotation invariance:
           :    0.0000000083    0.0000000019    0.0000000042

Norm of the Cartesian gradient     ...    0.0844386472
RMS gradient                       ...    0.0140731079
MAX gradient                       ...    0.0230485886

-------
TIMINGS
-------

Total SCF gradient time     ....        0.816 sec

Densities                   ....       0.001 sec  (  0.1%)
One electron gradient       ....       0.032 sec  (  3.9%)
RI-J Coulomb gradient       ....       0.240 sec  ( 29.4%)
XC gradient                 ....       0.491 sec  ( 60.1%)

Maximum memory used throughout the entire SCFGRAD-calculation: 28.8 MB
------------------------------------------------------------------------------
                         ORCA GEOMETRY RELAXATION STEP
------------------------------------------------------------------------------

Reading the OPT-File                    .... done
Getting information on internals        .... done
Copying old internal coords+grads       .... done
Making the new internal coordinates     .... (2022 redundants) done
Validating the new internal coordinates .... (2022 redundants) done
Calculating the B-matrix                .... done
Calculating the G,G- and P matrices     .... done
Transforming gradient to internals      .... done
Projecting the internal gradient        .... done
Number of atoms                         ....  12
Number of internal coordinates          .... 246
Current Energy                          ....  -295.712740818 Eh
Current gradient norm                   ....     0.084438647 Eh/bohr
Maximum allowed component of the step   ....  0.300
Current trust radius                    ....  0.300
Evaluating the initial hessian          ....  (Almloef) done
Projecting the Hessian                  .... done
Forming the augmented Hessian           .... done
Diagonalizing the augmented Hessian     .... done
Last element of RFO vector              ....  0.748585230
Lowest eigenvalues of augmented Hessian:
 -0.048210881  0.010536777  0.010548435  0.010600949  0.011647046
Length of the computed step             ....  0.885722227
Warning: the length of the step is outside the trust region - taking restricted step instead
The input lambda is                     ....     0.009000
   iter:   5  x=    0.001800  g=24108.526647 f(x)=    68.949141
   iter:  10  x=   -0.056579  g=   55.200723 f(x)=     1.208357
   iter:  15  x=   -0.168109  g=    1.026970 f(x)=     0.002290
The output lambda is                    ....    -0.168151 (18 iterations)
The final length of the internal step   ....  0.300000000
Converting the step to Cartesian space:
 Initial RMS(Int)=    0.0191273014
Transforming coordinates:
 Iter   0:  RMS(Cart)=    0.0385063591 RMS(Int)=    0.5665165194
done
Storing new coordinates                 .... done

                                .--------------------.
          ----------------------|Geometry convergence|-------------------------
          Item                value                   Tolerance       Converged
          ---------------------------------------------------------------------
          RMS gradient        0.0034899460            0.0001000000      NO
          MAX gradient        0.0180543464            0.0003000000      NO
          RMS step            0.0191273014            0.0020000000      NO
          MAX step            0.0991235336            0.0040000000      NO
          -------------------------------------------------------------------------
          ........................................................
          Max(Bonds)      0.0525      Max(Angles)    0.74
          Max(Dihed)        1.02      Max(Improp)    0.00
          ---------------------------------------------------------------------

The optimization has not yet converged - more geometry cycles are needed


    ---------------------------------------------------------------------------
                         Redundant Internal Coordinates
                            (Angstroem and degrees)

        Definition                    Value    dE/dq     Step     New-Value
    ----------------------------------------------------------------------------
     1. B(B   1,B   0)                3.0000  0.018019 -0.0524    2.9476   
     2. B(B   2,B   1)                4.8023  0.008502 -0.0259    4.7764   
     3. B(B   2,B   0)                3.7500  0.004125 -0.0124    3.7376   
     4. B(B   3,B   2)                3.0000  0.017478 -0.0507    2.9493   
     5. B(B   3,B   1)                3.7500  0.005603 -0.0164    3.7336   
     6. B(B   4,B   3)                4.8023  0.006159 -0.0200    4.7824   
     7. B(B   4,B   2)                3.7500  0.006795 -0.0194    3.7306   
     8. B(B   5,B   4)                3.0000  0.017915 -0.0518    2.9482   
     9. B(B   5,B   3)                3.7500  0.005420 -0.0158    3.7342   
    10. B(B   6,B   5)                4.8023  0.006219 -0.0201    4.7822   
    11. B(B   6,B   4)                3.7500  0.006128 -0.0176    3.7324   
    12. B(B   7,B   6)                3.0000  0.017223 -0.0500    2.9500   
    13. B(B   7,B   5)                3.7500  0.006351 -0.0182    3.7318   
    14. B(B   8,B   7)                4.8023  0.008328 -0.0255    4.7769   
    15. B(B   8,B   6)                3.7500  0.006030 -0.0176    3.7324   
    16. B(B   9,B   7)                3.7500  0.004422 -0.0132    3.7368   
    17. B(B   9,B   8)                3.0000  0.018054 -0.0525    2.9475   
[...]
      dxz     :     0.010127
      dyz     :     0.011838
      dx2y2   :     0.009358
      dxy     :     0.010280

  8 B s       :     3.185254  s :     3.185254
      pz      :     0.669988  p :     2.009530
      px      :     0.724031
      py      :     0.615511
      dz2     :     0.012833  d :     0.047851
      dxz     :     0.010356
      dyz     :     0.010046
      dx2y2   :     0.008233
      dxy     :     0.006383

  9 B s       :     2.816503  s :     2.816503
      pz      :     0.498583  p :     1.947406
      px      :     0.600675
      py      :     0.848148
      dz2     :     0.012633  d :     0.052457
      dxz     :     0.011733
      dyz     :     0.013091
      dx2y2   :     0.009769
      dxy     :     0.005231

 10 B s       :     3.070926  s :     3.070926
      pz      :     0.694260  p :     1.841480
      px      :     0.671997
      py      :     0.475223
      dz2     :     0.004780  d :     0.037712
      dxz     :     0.010691
      dyz     :     0.002652
      dx2y2   :     0.007319
      dxy     :     0.012271

 11 B s       :     3.069403  s :     3.069403
      pz      :     0.695779  p :     1.837148
      px      :     0.493046
      py      :     0.648323
      dz2     :     0.004813  d :     0.037799
      dxz     :     0.003781
      dyz     :     0.009574
      dx2y2   :     0.009632
      dxy     :     0.010000



                     *******************************
                     * LOEWDIN POPULATION ANALYSIS *
                     *******************************

----------------------
LOEWDIN ATOMIC CHARGES
----------------------
   0 B :   -0.003236
   1 B :   -0.076184
   2 B :    0.069735
   3 B :    0.054936
   4 B :   -0.055515
   5 B :   -0.055814
   6 B :    0.054548
   7 B :    0.070139
   8 B :   -0.076545
   9 B :   -0.002820
  10 B :    0.010898
  11 B :    0.009858

-------------------------------
LOEWDIN REDUCED ORBITAL CHARGES
-------------------------------
  0 B s       :     2.701673  s :     2.701673
      pz      :     0.702755  p :     2.166051
      px      :     0.741716
      py      :     0.721580
      dz2     :     0.034497  d :     0.135512
      dxz     :     0.022879
      dyz     :     0.038435
      dx2y2   :     0.013230
      dxy     :     0.026470

  1 B s       :     2.749406  s :     2.749406
      pz      :     0.730282  p :     2.210202
      px      :     0.537597
      py      :     0.942323
      dz2     :     0.032165  d :     0.116575
      dxz     :     0.020324
      dyz     :     0.027662
      dx2y2   :     0.013063
      dxy     :     0.023361

  2 B s       :     2.704059  s :     2.704059
      pz      :     0.706168  p :     2.085706
      px      :     0.868760
      py      :     0.510778
      dz2     :     0.037270  d :     0.140501
      dxz     :     0.031411
      dyz     :     0.016801
      dx2y2   :     0.025068
      dxy     :     0.029951

  3 B s       :     2.709353  s :     2.709353
      pz      :     0.771729  p :     2.096593
      px      :     0.761161
      py      :     0.563703
      dz2     :     0.038099  d :     0.139118
      dxz     :     0.024643
      dyz     :     0.018400
      dx2y2   :     0.033286
      dxy     :     0.024690

  4 B s       :     2.677844  s :     2.677844
      pz      :     0.740332  p :     2.237260
      px      :     0.754169
      py      :     0.742759
      dz2     :     0.040399  d :     0.140412
      dxz     :     0.023313
      dyz     :     0.023540
      dx2y2   :     0.031891
      dxy     :     0.021269

  5 B s       :     2.677751  s :     2.677751
      pz      :     0.741021  p :     2.237674
      px      :     0.844665
      py      :     0.651987
      dz2     :     0.040334  d :     0.140389
      dxz     :     0.024820
      dyz     :     0.021972
      dx2y2   :     0.027224
      dxy     :     0.026040

  6 B s       :     2.709328  s :     2.709328
      pz      :     0.771268  p :     2.097085
      px      :     0.428294
      py      :     0.897523
      dz2     :     0.038081  d :     0.139039
      dxz     :     0.013724
      dyz     :     0.029332
      dx2y2   :     0.025758
      dxy     :     0.032143

  7 B s       :     2.704348  s :     2.704348
      pz      :     0.706453  p :     2.085180
      px      :     0.505175
      py      :     0.873553
      dz2     :     0.037285  d :     0.140333
      dxz     :     0.017750
      dyz     :     0.030399
      dx2y2   :     0.027006
      dxy     :     0.027893

  8 B s       :     2.749160  s :     2.749160
      pz      :     0.731274  p :     2.210881
      px      :     0.801672
      py      :     0.677934
      dz2     :     0.032118  d :     0.116505
      dxz     :     0.024789
      dyz     :     0.023062
      dx2y2   :     0.022615
      dxy     :     0.013920

  9 B s       :     2.701900  s :     2.701900
      pz      :     0.702593  p :     2.165522
      px      :     0.648739
      py      :     0.814190
      dz2     :     0.034560  d :     0.135398
      dxz     :     0.028967
      dyz     :     0.032145
      dx2y2   :     0.025531
      dxy     :     0.014195

 10 B s       :     2.761149  s :     2.761149
      pz      :     0.780253  p :     2.130042
      px      :     0.883665
      py      :     0.466124
      dz2     :     0.013053  d :     0.097912
      dxz     :     0.029472
      dyz     :     0.006007
      dx2y2   :     0.020932
      dxy     :     0.028447

 11 B s       :     2.759916  s :     2.759916
      pz      :     0.782867  p :     2.132029
      px      :     0.630179
      py      :     0.718983
      dz2     :     0.013146  d :     0.098197
      dxz     :     0.010805
      dyz     :     0.024727
      dx2y2   :     0.025135
      dxy     :     0.024382



                      *****************************
                      * MAYER POPULATION ANALYSIS *
                      *****************************

  NA   - Mulliken gross atomic population
  ZA   - Total nuclear charge
  QA   - Mulliken gross atomic charge
  VA   - Mayer's total valence
  BVA  - Mayer's bonded valence
  FA   - Mayer's free valence

  ATOM       NA         ZA         QA         VA         BVA        FA
  0 B      4.8162     5.0000     0.1838     3.4609     3.4609     0.0000
  1 B      5.2462     5.0000    -0.2462     3.6711     3.6711     0.0000
  2 B      5.1622     5.0000    -0.1622     4.0810     4.0810    -0.0000
  3 B      5.0765     5.0000    -0.0765     3.8449     3.8449     0.0000
  4 B      4.7541     5.0000     0.2459     3.6048     3.6048    -0.0000
  5 B      4.7544     5.0000     0.2456     3.6075     3.6075     0.0000
  6 B      5.0771     5.0000    -0.0771     3.8459     3.8459    -0.0000
  7 B      5.1598     5.0000    -0.1598     4.0802     4.0802    -0.0000
  8 B      5.2426     5.0000    -0.2426     3.6787     3.6787     0.0000
  9 B      4.8164     5.0000     0.1836     3.4581     3.4581    -0.0000
 10 B      4.9501     5.0000     0.0499     3.5342     3.5342    -0.0000
 11 B      4.9444     5.0000     0.0556     3.5389     3.5389    -0.0000

  Mayer bond orders larger than 0.100000
B(  0-B ,  1-B ) :   0.7269 B(  0-B ,  2-B ) :   1.1787 B(  0-B ,  3-B ) :   0.5128 
B(  0-B , 10-B ) :   0.1404 B(  0-B , 11-B ) :   0.6220 B(  1-B ,  2-B ) :   0.2034 
B(  1-B ,  3-B ) :   1.2063 B(  1-B , 11-B ) :   1.3424 B(  2-B ,  3-B ) :   0.5169 
B(  2-B ,  4-B ) :   0.8085 B(  2-B ,  5-B ) :   0.5976 B(  2-B ,  6-B ) :   0.3021 
B(  2-B ,  7-B ) :   0.2036 B(  2-B , 10-B ) :   0.1073 B(  2-B , 11-B ) :   0.1192 
B(  3-B ,  5-B ) :   0.9425 B(  3-B ,  7-B ) :   0.3020 B(  3-B , 11-B ) :   0.2357 
B(  4-B ,  5-B ) :   0.9175 B(  4-B ,  6-B ) :   0.9432 B(  4-B ,  7-B ) :   0.5984 
B(  5-B ,  7-B ) :   0.8112 B(  6-B ,  7-B ) :   0.5158 B(  6-B ,  8-B ) :   1.2073 
B(  6-B ,  9-B ) :   0.5122 B(  6-B , 10-B ) :   0.2362 B(  7-B ,  8-B ) :   0.2039 
B(  7-B ,  9-B ) :   1.1777 B(  7-B , 10-B ) :   0.1157 B(  7-B , 11-B ) :   0.1089 
B(  8-B ,  9-B ) :   0.7254 B(  8-B , 10-B ) :   1.3476 B(  9-B , 10-B ) :   0.6199 
B(  9-B , 11-B ) :   0.1421 B( 10-B , 11-B ) :   0.9377 

-------
TIMINGS
-------

Total SCF time: 0 days 0 hours 0 min 4 sec 

Total time                  ....       4.303 sec
Sum of individual times     ....       3.921 sec  ( 91.1%)

SCF preparation             ....       0.743 sec  ( 17.3%)
Fock matrix formation       ....       2.648 sec  ( 61.5%)
  Startup                   ....       0.010 sec  (  0.4% of F)
  Split-RI-J                ....       0.958 sec  ( 36.2% of F)
  XC integration            ....       1.805 sec  ( 68.2% of F)
    XC Preparation          ....       0.000 sec  (  0.0% of XC)
    Basis function eval.    ....       0.462 sec  ( 25.6% of XC)
    Density eval.           ....       0.327 sec  ( 18.1% of XC)
    XC-Functional eval.     ....       0.051 sec  (  2.8% of XC)
    XC-Potential eval.      ....       0.381 sec  ( 21.1% of XC)
Diagonalization             ....       0.000 sec  (  0.0%)
Density matrix formation    ....       0.047 sec  (  1.1%)
Total Energy calculation    ....       0.028 sec  (  0.7%)
Population analysis         ....       0.219 sec  (  5.1%)
Orbital Transformation      ....       0.021 sec  (  0.5%)
Orbital Orthonormalization  ....       0.000 sec  (  0.0%)
DIIS solution               ....       0.031 sec  (  0.7%)
SOSCF solution              ....       0.184 sec  (  4.3%)
Finished LeanSCF after   4.5 sec

Maximum memory used throughout the entire LEANSCF-calculation: 13.5 MB


-------------------------------------------------------------------------------
                          DFT DISPERSION CORRECTION                            
                                                                               
                              DFTD3 V3.1  Rev 1                                
                          USING Becke-Johnson damping                          
-------------------------------------------------------------------------------
The BP86 functional is recognized
Active option DFTDOPT                   ...         4   

molecular C6(AA) [au] = 4237.683603 


            DFT-D V3
 parameters
 s6 scaling factor         :     1.0000 
 a1 scaling factor         :     0.3946 
 s8 scaling factor         :     3.2822 
 a2 scaling factor         :     4.8516 
 ad hoc parameters k1-k3   :    16.0000     1.3333    -4.0000 

 Edisp/kcal,au: -22.023181617345  -0.035096170143 
 E6   /kcal   :  -6.277423248 
 E8   /kcal   : -15.745758369 
 % E8         :  71.496292601 

-------------------------   ----------------
Dispersion correction           -0.035096170
-------------------------   ----------------


-------------------------   --------------------
FINAL SINGLE POINT ENERGY      -297.665878007075
-------------------------   --------------------

                                *** OPTIMIZATION RUN DONE ***



           ************************************************************
           *        Program running with 8 parallel MPI-processes     *
           *              working on a common directory               *
           ************************************************************

------------------------------------------------------------------------------
                              ORCA PROPERTY CALCULATIONS
------------------------------------------------------------------------------

GBWName                                 ... hex_prism_nn3.00.gbw
Number of atoms                         ...     12
Number of basis functions               ...    168
Max core memory                         ...   2500 MB

Electric properties:
Dipole moment                           ... YES
Quadrupole moment                       ...  NO
Static polarizability (Dipole/Dipole)   ...  NO
Static polarizability (Dipole/Quad.)    ...  NO
Static polarizability (Quad./Quad.)     ...  NO
Static polarizability (Velocity)        ...  NO
Static hyperpolarizability              ...  NO

Atomic electric properties:
Dipole moment                           ...  NO
Quadrupole moment                       ...  NO
Static polarizability                   ...  NO

Choice of electric origin               ... Center of mass
Position of electric origin             ...     0.000000    -0.000000    -0.000000

General magnetic properties:
Magnetizability                         ...  NO

EPR properties:
g-Tensor (aka g-matrix)                 ...  NO
Zero-Field splitting spin-orbit         ...  NO
Zero-field splitting spin-spin          ...  NO
Hyperfine couplings                     ...  NO (   0 nuclei)
Quadrupole couplings                    ...  NO (   0 nuclei)
Contact density                         ...  NO (   0 nuclei)

NMR properties:
Chemical shifts                         ...  NO (   0 nuclei)
Spin-rotation constants                 ...  NO (   0 nuclei)
Spin-spin couplings                     ...  NO (   0 nuclei,    0 pairs)

Choice of magnetic origin               ... GIAO
Position of magnetic origin             ...     0.000000     0.000000     0.000000

Properties with geometric perturbations:
SCF Hessian                             ...  NO
IR spectrum                             ...  NO
VCD spectrum                            ...  NO
X-ray spectroscopy properties:
SCF XES/XAS/RIXS spectra                ...  NO

SCF SOC stabilization energy            ...  NO
Diagonal Born-Oppenheimer correction    ...  NO

-------------
DIPOLE MOMENT
-------------

Method             : SCF
Type of density    : Electron Density
Multiplicity       :   1
Irrep              :   0
Energy             :  -297.6307818369317033 Eh
Basis              : AO
                                X                 Y                 Z
Electronic contribution:     -0.315443065       0.544610249      -0.000118200
Nuclear contribution   :      0.000000000      -0.000000000      -0.000000000
                        -----------------------------------------
Total Dipole Moment    :     -0.315443065       0.544610249      -0.000118200
                        -----------------------------------------
Magnitude (a.u.)       :      0.629368465
Magnitude (Debye)      :      1.599727505



--------------------
Rotational spectrum 
--------------------
 
Rotational constants in cm-1:             0.071021             0.054584             0.038590 
Rotational constants in MHz :          2129.144301          1636.382471          1156.904397 

Dipole components along the rotational axes: 
x,y,z [a.u.] :     0.001381    -0.629366    -0.001014 
x,y,z [Debye]:     0.003509    -1.599722    -0.002577 

 

Dipole moment calculation done in   0.1 sec 

Maximum memory used throughout the entire PROP-calculation: 10.7 MB

--------------------------------
SUGGESTED CITATIONS FOR THIS RUN
--------------------------------

Below you find a list of papers that are relevant to this ORCA run
We neither can nor want to force you to cite these papers, but we appreciate if you do
You receive ORCA, which is the product of decades of hard work by many enthusiastic individuals, for free
The only thing we kindly ask in return is that you cite our papers,
We deeply appreciate it, if you show your appreciation for ORCA by not just citing the generic ORCA reference.

Please note that relegating all ORCA citations to the supporting information does *not* help us.
SI sections are not indexed - citations you put there will not count into any citation statistics
But we need these citations in order to attract the funding resources that allow us to do what we are doing

Therefore, if you are a happy ORCA user, please consider citing a few of the papers listed below in the main body of your paper

In addition to the list printed below, the program has created the file hex_prism_nn3.00.bibtex that contains the list in bibtex format
You can import this file easily into all common literature databanks and citation aid programs

It goes without saying that in many instances, there are alternative algorithms to achieve similar
results as the ones you have gotten from ORCA. It is, of course, also the case that in some instances
ORCA just re-implements algorithms worked out by others. We are fully aware of that and we are also
fully appreciative of our colleagues work. Hence this citation list should not be read as indicating
that the listed papers, which are focused on our own work, are the only ones worth citing. It simply
meant to make it easier for users to cite ORCA specific papers. It is not a substitute for doing your
own literature research and citing the relevant literature in a scientifically appropriate manner.

List of essential papers. We consider these as the minimum necessary citations

  1. Neese, F.
     Software update: the ORCA program system, version 6.0
     WIRES Comput. Molec. Sci. 2025 15(1), e70019
     doi.org/10.1002/wcms.70019

List of papers to cite with high priority. The work reported in these papers was absolutely
necessary for this run to complete.
Our perspective: the developers of density functionals and basis sets usually get cited in chemistry papers
Good! But without the algorithms to do something with them, the functionals or basis sets would not do anything.
Hence, in our opinion, the algorithm design and method developments papers are equally worthy of getting cited

  1. Neese, F.
     An improvement of the resolution of the identity approximation for the formation of the Coulomb matrix
     J. Comp. Chem. 2003 24(14), 1740-1747
     doi.org/10.1002/jcc.10318
  2. Grimme, S.; Antony, J.; Ehrlich, S.; Krieg, H.
     A consistent and accurate ab initio parametrization of density functional dispersion correction (DFT-D) for the 94 elements H-Pu
     J. Chem. Phys. 2010 132 , 154104
     doi.org/10.1063/1.3382344
  3. Grimme, S.; Ehrlich, S.; Goerigk, L.
     Effect of the damping function in dispersion corrected density functional theory
     J. Comput. Chem. 2011 32(7), 1456-1465
     doi.org/10.1002/jcc.21759
  4. Helmich-Paris, B.
     A trust-region augmented Hessian implementation for restricted and unrestricted Hartree–Fock and Kohn–Sham methods
     J. Chem. Phys. 2021 154 , 164104
     doi.org/10.1063/5.0040798
  5. Neese, F.
     The SHARK Integral Generation and Digestion System
     J. Comp. Chem. 2022 44(3), 381
     doi.org/10.1002/jcc.26942

List of suggested additional citations. These are papers that are important in the 'surrounding' of 
of this run, or papers that preceded the highly important papers. If you like your results we are grateful for a citation.

  1. Neese, F.
     The ORCA program system
     WIRES Comput. Molec. Sci. 2012 2(1), 73-78
     doi.org/10.1002/wcms.81
  2. Neese, F.
     Software update: the ORCA program system, version 4.0
     WIRES Comput. Molec. Sci. 2018 8(1), 1-6
     doi.org/10.1002/wcms.1327
  3. Neese, F.; Wennmohs, F.; Becker, U.; Riplinger, C.
     The ORCA quantum chemistry program package
     J. Chem. Phys. 2020 152(22), 224108
     doi.org/10.1063/5.0004608
  4. Neese, F.
     Software update: The ORCA program system—Version 5.0
     WIRES Comput. Molec. Sci. 2022 12(1), e1606
     doi.org/10.1002/wcms.1606

List of optional additional citations

  1. Neese, F.
     Approximate second-order SCF convergence for spin unrestricted wavefunctions
     Chem. Phys. Lett. 2000 325(1-3), 93-98
     doi.org/10.1016/s0009-2614(00)00662-x

Timings for individual modules:

Sum of individual times          ...      961.537 sec (=  16.026 min)
Startup calculation              ...      122.527 sec (=   2.042 min)  12.7 %
SCF iterations                   ...      682.021 sec (=  11.367 min)  70.9 %
Property calculations            ...        0.783 sec (=   0.013 min)   0.1 %
SCF Gradient evaluation          ...      154.649 sec (=   2.577 min)  16.1 %
Geometry relaxation              ...        1.557 sec (=   0.026 min)   0.2 %
                             ****ORCA TERMINATED NORMALLY****
TOTAL RUN TIME: 0 days 0 hours 17 minutes 1 seconds 110 msec
