
                                 *****************
                                 * O   R   C   A *
                                 *****************

                                            #,                                       
                                            ###                                      
                                            ####                                     
                                            #####                                    
                                            ######                                   
                                           ########,                                 
                                     ,,################,,,,,                         
                               ,,#################################,,                 
                          ,,##########################################,,             
                       ,#########################################, ''#####,          
                    ,#############################################,,   '####,        
                  ,##################################################,,,,####,       
                ,###########''''           ''''###############################       
              ,#####''   ,,,,##########,,,,          '''####'''          '####       
            ,##' ,,,,###########################,,,                        '##       
           ' ,,###''''                  '''############,,,                           
         ,,##''                                '''############,,,,        ,,,,,,###''
      ,#''                                            '''#######################'''  
     '                                                          ''''####''''         
             ,#######,   #######,   ,#######,      ##                                
            ,#'     '#,  ##    ##  ,#'     '#,    #''#        ,####,    ,#,          
            ##       ##  ##   ,#'  ##            #'  '#       #'       ,# #          
            ##       ##  #######   ##           ,######,      #####,      #          
            '#,     ,#'  ##    ##  '#,     ,#' ,#      #,     #,   #      #          
             '#######'   ##     ##  '#######'  #'      '#     '####' #    #          



                #########################################################
                #                        -***-                          #
                #          Department of theory and spectroscopy        #
                #                                                       #
                #                      Frank Neese                      #
                #                                                       #
                #     Directorship, Architecture, Infrastructure        #
                #                    SHARK, DRIVERS                     #
                #        Core code/Algorithms in most modules           #
                #                                                       #
                #        Max Planck Institute fuer Kohlenforschung      #
                #                Kaiser Wilhelm Platz 1                 #
                #                 D-45470 Muelheim/Ruhr                 #
                #                      Germany                          #
                #                                                       #
                #                  All rights reserved                  #
                #                        -***-                          #
                #########################################################


                         Program Version 6.1.1  -  RELEASE   -
                                (GIT: $487d211c$)
                          ($2025-11-21 10:33:24 +0100$)
                                                                         
                                  - NO-DMRG VERSION -                    
                                                                         


 With contributions from (in alphabetic order):
[Max-Planck-Institut fuer Kohlenforschung]                               
  Daniel Aravena         : Magnetic Suceptibility                        
  Michael Atanasov       : Ab Initio Ligand Field Theory (pilot matlab implementation)
  Alexander A. Auer      : GIAO ZORA, VPT2 properties, NMR spectrum      
  Ute Becker             : All parallelization in ORCA, NUMFREQ, NUMCALC 
  Giovanni Bistoni       : ED, misc. LED, open-shell LED, HFLD           
  Dmytro Bykov           : pre 5.0 version of the SCF Hessian            
  Marcos Casanova-Páez   : Triplet and SCS-CIS(D). UHF-(DLPNO)-IP/EA/STEOM-CCSD. UHF-CVS-IP/STEOM-CCSD   
  Vijay G. Chilkuri      : MRCI spin determinant printing, contributions to CSF-ICE 
  Pauline Colinet        : FMM embedding                                 
  Dipayan Datta          : RHF DLPNO-CCSD density                        
  Achintya Kumar Dutta   : EOM-CC, STEOM-CC                              
  Nicolas Foglia         : Exact transition moments, OPA infrastructure, MCD improvements    
  Dmitry Ganyushin       : Spin-Orbit,Spin-Spin,Magnetic field MRCI      
  Miquel Garcia-Rates    : C-PCM and meta-GGA Hessian, CCSD/C-PCM, Gaussian charge scheme 
  Tiago L. C. Gouveia    : GS-ROHF, GS-ROCIS                             
  Yang Guo               : DLPNO-NEVPT2, F12-NEVPT2, CIM, IAO-localization        
  Andreas Hansen         : Spin unrestricted coupled pair/coupled cluster methods 
  Ingolf Harden          : AUTO-CI MPn and infrastructure                
  Benjamin Helmich-Paris : MC-RPA, TRAH-(SCF,CASSCF), AVAS, COSX integrals, SCF dyn. polar., MC-PDFT, srDFT 
  Lee Huntington         : MR-EOM, pCC                                   
  Robert Izsak           : Overlap fitted RIJCOSX, COSX-SCS-MP3, EOM     
  Riya Kayal             : Wick's Theorem for AUTO-CI, AUTO-CI UHF-CCSDT 
  Emily Kempfer          : AUTO-CI RHF CISDT and CCSDT, approximate NEVPT4
  Christian Kollmar      : KDIIS, OOCD, Brueckner-CCSD(T), CCSD density, CASPT2, CASPT2-K, improved NEVPT2 
  Axel Koslowski         : Symmetry handling                             
  Simone Kossmann        : meta-GGA functionals, TD-DFT gradient, OOMP2, (MP2 Hessian; deprecated post 5.0) 
  Lucas Lang             : DCDCAS, Hyperfine gauge corrections, ICE-SOC+SSC
  Marvin Lechner         : AUTO-CI (C++ implementation), FIC-MRCC        
  Spencer Leger          : CASSCF response                               
  Dagmar Lenk            : GEPOL surface, SMD, ORCA-2-JSON               
  Dimitrios Liakos       : Extrapolation schemes; Compound Job, Property file
  Dimitrios Manganas     : Further ROCIS development; embedding schemes. LFT, Crystal Embedding 
  Dimitrios Pantazis     : SARC Basis sets                               
  Anastasios Papadopoulos: AUTO-CI, single reference methods and gradients 
  Taras Petrenko         : pre 6.0 DFT Hessian and TD-DFT gradient,  ECA, NRVS 
  Petra Pikulova         : Analytic Raman intensities                    
  Peter Pinski           : DLPNO-MP2, DLPNO-MP2 Gradient                 
  Shashank Vittal Rao    : ES-AILFT, MagRelax                            
  Christoph Reimann      : Effective Core Potentials                     
  Marius Retegan         : Local ZFS, SOC                                
  Christoph Riplinger    : Optimizer, TS searches, QM/MM, DLPNO-CCSD(T), (RO)-DLPNO pert. Triples 
  Michael Roemelt        : Original ROCIS implementation, recursive CI coupling coefficients
  Masaaki Saitow         : Open-shell DLPNO-CCSD energy and density      
  Barbara Sandhoefer     : DKH picture change effects                    
  Yorick L. A. Schmerwitz: GMF and freeze-and-release deltaSCF, NEB S-IDPP initial path                    
  Kantharuban Sivalingam : CASSCF convergence/infrastructure, NEVPT2, NEVPT3, NEVPT4(SD), FIC-MRCI and CEPA variants
  Bernardo de Souza      : ESD, SOC TD-DFT                               
  Georgi L. Stoychev     : AutoAux, RI-MP2 NMR, DLPNO-MP2 response, X2C  
  Van Anh Tran           : RI-MP2 g-tensors                              
  Willem Van den Heuvel  : Paramagnetic NMR                              
  Zikuan Wang            : NOTCH, Electric field optimization            
  Frank Wennmohs         : Technical directorship and infrastructure     
  Hang Xu                : AUTO-CI-Response properties                   
                                                                         
[FACCTs GmbH]                                                            
  Markus Bursch, Nicolas Foglia, Miquel Garcia-Rates, Ingolf Harden, Hagen Neugebauer, Anastasios Papadopoulos, 
  Christoph Riplinger, Bernardo de Souza, Georgi L. Stoychev                                                    
                                                                 
  APM, various basis sets, CI-OPT, improved COSX, DLPNO-Multilevel,           
  DOCKER, DRACO, updates on ESD, Fragmentator, GOAT, IRC, LR-CPCM, L-BFGS, MBIS, meta-GGA TD-DFT gradient, ML-optimized integration grids, 
  MM, NACMEs, nearIR, NEB, NEB-TS, NL-DFT gradient (VV10), 2- and 3-layer-ONIOM, interface openCOSMO-RS, QMMM,   
  Crystal-QMMM, RESP, rigid body optimization, SF, symmetry and pop. for TD-DFT, various functionals, SOLVATOR                                   
                                                                         
[Other institutions]                                                     
  V. Asgeirsson          : NEB                                           
  Christoph Bannwarth    : sTDA-DFT, sTD-DFT, PBEh-3c, B97-3c, D3        
  Giovanni Bistoni       : ETS/NOCV, ADLD/ADEX, COVALED                  
  Martin Brehm           : Molecular dynamics                            
  Ronald Cardenas        : ETS/NOCV                                      
  Martina Colucci        : COVALED                                       
  Sebastian Ehlert       : rSCAN, r2SCAN, r2SCAN-3c, D4, dhf basis sets  
  Marvin Friede          : D4 for Fr, Ra, Ac-Lr                          
  Lars Goerigk           : TD-DFT with DH, B97 family of functionals     
  Stefan Grimme          : VdW corrections, initial TS optimization, DFT functionals, gCP, sTDA/sTD-DF 
  Waldemar Hujo          : DFT-NL                                        
  H. Jonsson             : NEB                                           
  Holger Kruse           : gCP                                           
  Marcel Mueller         : wB97X-3c, vDZP basis set                      
  Hagen Neugebauer       : wr2SCAN, Native XTB                           
  Gianluca Regni         : ADLD/ADEX                                     
  Tobias Risthaus        : pre 6.0 range-separated hybrid DFT and stability analysis
  Lukas Wittmann         : regularized MP2, r2SCAN double-hybrids, wr2SCAN        
                                                                         
We gratefully acknowledge several colleagues who have allowed us to      
interface, adapt or use parts of their codes:                            
  Ed Valeev, F. Pavosevic, A. Kumar             : LibInt (2-el integral package), F12 methods 
  Garnet Chan, S. Sharma, J. Yang, R. Olivares  : DMRG                   
  Ulf Ekstrom                                   : XCFun DFT Library      
  Mihaly Kallay                                 : mrcc  (arbitrary order and MRCC methods)
  Frank Weinhold                                : gennbo (NPA and NBO analysis)           
  Simon Mueller                                 : openCOSMO-RS                            
  Christopher J. Cramer and Donald G. Truhlar   : smd solvation model                     
  S Lehtola, MJT Oliveira, MAL Marques          : LibXC Library                           
  Liviu Ungur et al                             : ANISO software                          


 Your calculation uses the libint2 library for the computation of 2-el integrals
 For citations please refer to: http://libint.valeyev.net

 Your ORCA version has been built with support for libXC version: 7.0.0
 For citations please refer to: https://libxc.gitlab.io

 This ORCA versions uses:
   CBLAS   interface :  Fast vector & matrix operations
   LAPACKE interface :  Fast linear algebra routines
   SCALAPACK package :  Parallel linear algebra routines
   Shared memory     :  Shared parallel matrices
   BLAS/LAPACK       :  OpenBLAS 0.3.29  USE64BITINT DYNAMIC_ARCH NO_AFFINITY Zen SINGLE_THREADED
        Core in use  :  Zen
   Copyright (c) 2011-2014, The OpenBLAS Project


  ***********************************
  * Starting time: Thu Apr 23 17:58:47 2026
  * Host name:     vmi3233575
  * Process ID:    1384141
  * Working dir.:  /root/b12_scan/jobs/icosahedron_nn2.00_perturb1
  ***********************************

NOTE: MaxCore=2500 MB was set to SCF,MP2,MDCI,CIPSI,MRCI,RASCI and CIS
      => If you want to overwrite this, your respective input block should be placed after the MaxCore statement
Your calculation utilizes the atom-pairwise dispersion correction
with the Becke-Johnson damping scheme (D3BJ)


================================================================================

----- Orbital basis set information -----
Your calculation utilizes the basis: def2-SVP
   F. Weigend and R. Ahlrichs, Phys. Chem. Chem. Phys. 7, 3297 (2005).

----- AuxJ basis set information -----
Your calculation utilizes the auxiliary basis: def2/J
   H-Rn: F. Weigend, Phys. Chem. Chem. Phys. 8, 1057 (2006).
   Fr-Lr: K. Eichkorn, F. Weigend, O. Treutler, R. Ahlrichs; Theor. Chem. Acc. 97, 119 (1997).

================================================================================
                                        WARNINGS
                       Please study these warnings very carefully!
================================================================================


WARNING: Geometry Optimization
  ===> : Switching off AutoStart
         For restart on a previous wavefunction, please use MOREAD

================================================================================
                                       INPUT FILE
================================================================================
NAME = icosahedron_nn2.00_perturb1.inp
|  1> ! BP86 def2-SVP def2/J RI Opt TightSCF D3BJ
|  2> ! SlowConv
|  3> 
|  4> %pal nprocs 8 end
|  5> %maxcore 2500
|  6> 
|  7> %geom
|  8>   MaxIter 300
|  9> end
| 10> 
| 11> * xyz 0 1
| 12> B      0.05183763     -0.87675728     -1.56846843
| 13> B     -1.19547358     -1.48223061      0.06695619
| 14> B     -1.69857697      0.08716772     -0.94531414
| 15> B      0.04411987     -0.99573666      1.70004094
| 16> B     -1.11046811      1.59359750     -0.07231790
| 17> B      1.70786092      0.00595832     -1.04386851
| 18> B     -0.11728627      0.96142116     -1.61681266
| 19> B      0.95865956     -1.42392442      0.15100865
| 20> B     -2.02470836     -0.28335199      0.97378419
| 21> B     -0.06332856      1.03204645      1.65063228
| 22> B      1.31767581      1.45123087     -0.05664075
| 23> B      1.92444973      0.09700545      1.09945951
| 24> *
| 25> 
| 26>                          ****END OF INPUT****
================================================================================

                       *****************************
                       * Geometry Optimization Run *
                       *****************************

Geometry optimization settings:
Update method            Update   .... BFGS
Choice of coordinates    CoordSys .... (2022) Redundant Internals
Initial Hessian          InHess   .... Almloef's Model
Max. no of cycles        MaxIter  .... 300

Convergence Tolerances:
Energy Change            TolE     ....  5.0000e-06 Eh
Max. Gradient            TolMAXG  ....  3.0000e-04 Eh/bohr
RMS Gradient             TolRMSG  ....  1.0000e-04 Eh/bohr
Max. Displacement        TolMAXD  ....  4.0000e-03 bohr
RMS Displacement         TolRMSD  ....  2.0000e-03 bohr
Strict Convergence                .... False

------------------------------------------------------------------------------
                        ORCA OPTIMIZATION COORDINATE SETUP
------------------------------------------------------------------------------

The optimization will be done in redundant internal coordinates (2022)
Making redundant internal coordinates   ...  (2022 redundants) done
Evaluating the initial hessian          ...  (Almloef) done
Evaluating the coordinates              ...  done
Calculating the B-matrix                .... done
Calculating the G-matrix                .... done
The number of degrees of freedom        ....  115

    -----------------------------------------------------------------
                    Redundant Internal Coordinates


    -----------------------------------------------------------------
         Definition                    Initial Value    Approx d2E/dq
    -----------------------------------------------------------------
      1. B(B   2,B   0)                  2.0932         0.063312   
      2. B(B   2,B   1)                  1.9341         0.113571   
      3. B(B   4,B   2)                  1.8378         0.161814   
      4. B(B   5,B   0)                  1.9485         0.107711   
      5. B(B   6,B   2)                  1.9276         0.116316   
      6. B(B   6,B   4)                  1.9420         0.110313   
      7. B(B   6,B   0)                  1.8466         0.156652   
      8. B(B   7,B   5)                  2.0084         0.086454   
      9. B(B   7,B   3)                  1.8491         0.155197   
     10. B(B   7,B   0)                  2.0195         0.082999   
     11. B(B   8,B   2)                  1.9816         0.095406   
     12. B(B   8,B   1)                  1.7168         0.252373   
     13. B(B   9,B   4)                  2.0929         0.063369   
     14. B(B   9,B   3)                  2.0312         0.079494   
     15. B(B  10,B   5)                  1.7932         0.190566   
     16. B(B  11,B  10)                  1.8811         0.137975   
     17. B(B  11,B   7)                  2.0361         0.078096   
     18. A(B   6,B   0,B   7)          109.4588         0.256296   
     19. A(B   5,B   0,B   7)           60.7831         0.242697   
     20. A(B   5,B   0,B   6)           68.5267         0.266462   
     21. A(B   2,B   0,B   5)          114.9572         0.233561   
     22. A(B   2,B   0,B   7)          104.2880         0.225280   
     23. A(B   2,B   0,B   6)           58.1830         0.246352   
     24. A(B   2,B   1,B   8)           65.4280         0.289073   
     25. A(B   1,B   2,B   8)           51.9906         0.249534   
     26. A(B   4,B   2,B   6)           62.0428         0.270906   
     27. A(B   4,B   2,B   8)           75.2786         0.262927   
     28. A(B   0,B   2,B   8)          109.8675         0.229646   
     29. A(B   0,B   2,B   4)          104.5540         0.247511   
     30. A(B   0,B   2,B   1)           64.1905         0.235305   
     31. A(B   1,B   2,B   4)          109.4677         0.269925   
     32. A(B   1,B   2,B   6)          109.6913         0.256899   
     33. A(B   0,B   2,B   6)           54.4897         0.236098   
     34. A(B   6,B   2,B   8)          123.8619         0.250404   
     35. A(B   7,B   3,B   9)          103.7070         0.254321   
     36. A(B   2,B   4,B   9)          109.3437         0.247543   
     37. A(B   2,B   4,B   6)           61.2513         0.268737   
     38. A(B   6,B   4,B   9)          108.1493         0.234374   
     39. A(B   0,B   5,B  10)          109.1720         0.274510   
     40. A(B   0,B   5,B   7)           61.3546         0.244123   
     41. A(B   7,B   5,B  10)           99.5034         0.265505   
     42. A(B   2,B   6,B   4)           56.7059         0.255796   
     43. A(B   0,B   6,B   4)          110.4909         0.267423   
     44. A(B   0,B   6,B   2)           67.3273         0.269576   
     45. A(B   3,B   7,B   5)          121.2001         0.257491   
     46. A(B   0,B   7,B   5)           57.8623         0.235237   
     47. A(B   5,B   7,B  11)           64.4286         0.233235   
     48. A(B   3,B   7,B  11)           70.8158         0.253658   
     49. A(B   0,B   7,B   3)          115.3687         0.255943   
     50. A(B   0,B   7,B  11)          114.0308         0.231910   
     51. A(B   1,B   8,B   2)           62.5814         0.281334   
     52. A(B   3,B   9,B   4)          108.3211         0.223984   
     53. A(B   5,B  10,B  11)           71.8171         0.285204   
     54. A(B   7,B  11,B  10)           95.6512         0.249332   
     55. D(B   4,B   2,B   0,B   7)     65.5594         0.010000   
     56. D(B   6,B   2,B   0,B   5)     40.1889         0.010000   
     57. D(B   1,B   2,B   0,B   6)   -143.6009         0.010000   
     58. D(B   4,B   2,B   0,B   5)      1.4752         0.010000   
     59. D(B   4,B   2,B   1,B   8)     51.8047         0.010000   
     60. D(B   6,B   2,B   1,B   8)    118.1253         0.010000   
     61. D(B   4,B   2,B   0,B   6)    -38.7137         0.010000   
     62. D(B   1,B   2,B   0,B   7)    -39.3278         0.010000   
     63. D(B   1,B   2,B   0,B   5)   -103.4120         0.010000   
     64. D(B   0,B   2,B   1,B   8)    148.9919         0.010000   
     65. D(B   6,B   4,B   2,B   8)    142.3421         0.010000   
     66. D(B   9,B   4,B   2,B   0)    -65.4049         0.010000   
     67. D(B   6,B   4,B   2,B   1)    102.5323         0.010000   
     68. D(B   9,B   4,B   2,B   1)      1.9317         0.010000   
     69. D(B   6,B   4,B   2,B   0)     35.1956         0.010000   
     70. D(B   9,B   4,B   2,B   6)   -100.6005         0.010000   
     71. D(B  10,B   5,B   0,B   7)    -90.5303         0.010000   
     72. D(B  10,B   5,B   0,B   6)     38.5315         0.010000   
     73. D(B  10,B   5,B   0,B   2)      2.4281         0.010000   
     74. D(B   7,B   5,B   0,B   6)    129.0618         0.010000   
     75. D(B   7,B   5,B   0,B   2)     92.9584         0.010000   
     76. D(B   4,B   6,B   2,B   0)   -136.7376         0.010000   
     77. D(B   0,B   6,B   2,B   8)     91.3734         0.010000   
     78. D(B   0,B   6,B   2,B   4)    136.7376         0.010000   
     79. D(B   0,B   6,B   2,B   1)     34.5686         0.010000   
     80. D(B   4,B   6,B   0,B   7)    -57.3947         0.010000   
     81. D(B   4,B   6,B   0,B   5)   -103.3450         0.010000   
     82. D(B   4,B   6,B   0,B   2)     37.7013         0.010000   
     83. D(B   2,B   6,B   0,B   7)    -95.0960         0.010000   
     84. D(B   4,B   6,B   2,B   1)   -102.1690         0.010000   
     85. D(B   2,B   6,B   0,B   5)   -141.0463         0.010000   
     86. D(B   2,B   6,B   4,B   9)    102.5772         0.010000   
     87. D(B   0,B   6,B   4,B   9)     60.1157         0.010000   
     88. D(B   0,B   6,B   4,B   2)    -42.4614         0.010000   
     89. D(B   4,B   6,B   2,B   8)    -45.3642         0.010000   
     90. D(B  11,B   7,B   5,B  10)    -39.7489         0.010000   
     91. D(B  11,B   7,B   5,B   0)   -146.4855         0.010000   
     92. D(B   3,B   7,B   5,B   0)   -102.1847         0.010000   
     93. D(B   0,B   7,B   5,B  10)    106.7365         0.010000   
     94. D(B  11,B   7,B   3,B   9)     46.5147         0.010000   
     95. D(B   5,B   7,B   3,B   9)      4.6745         0.010000   
     96. D(B   0,B   7,B   3,B   9)    -61.6779         0.010000   
     97. D(B  11,B   7,B   0,B   2)    -77.8349         0.010000   
     98. D(B   5,B   7,B   0,B   6)    -50.0267         0.010000   
     99. D(B   5,B   7,B   0,B   2)   -110.8821         0.010000   
    100. D(B   3,B   7,B   5,B  10)      4.5519         0.010000   
    101. D(B   3,B   7,B   0,B   6)     62.2562         0.010000   
    102. D(B   3,B   7,B   0,B   5)    112.2829         0.010000   
    103. D(B   3,B   7,B   0,B   2)      1.4008         0.010000   
    104. D(B   1,B   8,B   2,B   6)    -89.4603         0.010000   
    105. D(B   1,B   8,B   2,B   4)   -129.9927         0.010000   
    106. D(B   1,B   8,B   2,B   0)    -29.5459         0.010000   
    107. D(B   3,B   9,B   4,B   6)    -61.4886         0.010000   
    108. D(B   3,B   9,B   4,B   2)      3.5911         0.010000   
    109. D(B   4,B   9,B   3,B   7)     60.4728         0.010000   
    110. D(B  11,B  10,B   5,B   7)     41.0796         0.010000   
    111. D(B  11,B  10,B   5,B   0)    103.9248         0.010000   
    112. D(B   7,B  11,B  10,B   5)    -39.9711         0.010000   
    113. D(B  10,B  11,B   7,B   5)     37.1652         0.010000   
    114. D(B  10,B  11,B   7,B   3)   -103.5975         0.010000   
    115. D(B  10,B  11,B   7,B   0)      6.3738         0.010000   
    -----------------------------------------------------------------

Number of atoms                         .... 12
Number of degrees of freedom            .... 115


         *************************************************************
         *                GEOMETRY OPTIMIZATION CYCLE   1            *
         *************************************************************
---------------------------------
CARTESIAN COORDINATES (ANGSTROEM)
---------------------------------
  B      0.051838   -0.876757   -1.568468
  B     -1.195474   -1.482231    0.066956
  B     -1.698577    0.087168   -0.945314
  B      0.044120   -0.995737    1.700041
  B     -1.110468    1.593598   -0.072318
  B      1.707861    0.005958   -1.043869
  B     -0.117286    0.961421   -1.616813
  B      0.958660   -1.423924    0.151009
  B     -2.024708   -0.283352    0.973784
  B     -0.063329    1.032046    1.650632
  B      1.317676    1.451231   -0.056641
  B      1.924450    0.097005    1.099460

----------------------------
CARTESIAN COORDINATES (A.U.)
----------------------------
  NO LB      ZA    FRAG     MASS         X           Y           Z
   0 B     5.0000    0    10.810    0.097959   -1.656831   -2.963976
   1 B     5.0000    0    10.810   -2.259118   -2.801010    0.126529
   2 B     5.0000    0    10.810   -3.209845    0.164723   -1.786385
   3 B     5.0000    0    10.810    0.083374   -1.881670    3.212612
   4 B     5.0000    0    10.810   -2.098481    3.011463   -0.136661
   5 B     5.0000    0    10.810    3.227389    0.011260   -1.972626
   6 B     5.0000    0    10.810   -0.221639    1.816823   -3.055333
   7 B     5.0000    0    10.810    1.811604   -2.690827    0.285365
   8 B     5.0000    0    10.810   -3.826144   -0.535458    1.840185
   9 B     5.0000    0    10.810   -0.119674    1.950285    3.119243
  10 B     5.0000    0    10.810    2.490046    2.742429   -0.107036
  11 B     5.0000    0    10.810    3.636683    0.183314    2.077677

--------------------------------
INTERNAL COORDINATES (ANGSTROEM)
--------------------------------
 B      0   0   0     0.000000000000     0.00000000     0.00000000
 B      1   0   0     2.144060842335     0.00000000     0.00000000
 B      2   1   0     1.934118755463    61.50818097     0.00000000
 B      2   1   3     2.107186295834   100.58695284   250.83207667
 B      3   2   1     1.837750023353   109.46765927   262.81280227
 B      1   2   3     1.948539207604   114.64467330   104.00393324
 B      1   2   3     1.846575217912   104.34735065    31.36388542
 B      4   2   1     1.849115636693    65.68520418   331.29093513
 B      2   1   3     1.716763608491   119.12402022   327.56699635
 B      4   2   1     2.031228869919   100.39958227    71.74464193
 B      6   1   2     1.793230552373   109.17203579   302.07214007
 B     11   6   1     1.881135000296    71.81711720   103.92480185

---------------------------
INTERNAL COORDINATES (A.U.)
---------------------------
 B      0   0   0     0.000000000000     0.00000000     0.00000000
 B      1   0   0     4.051687806478     0.00000000     0.00000000
 B      2   1   0     3.654954758306    61.50818097     0.00000000
 B      2   1   3     3.982005012279   100.58695284   250.83207667
 B      3   2   1     3.472844246745   109.46765927   262.81280227
 B      1   2   3     3.682205463579   114.64467330   104.00393324
 B      1   2   3     3.489521447539   104.34735065    31.36388542
 B      4   2   1     3.494322143301    65.68520418   331.29093513
 B      2   1   3     3.244213056730   119.12402022   327.56699635
 B      4   2   1     3.838466279462   100.39958227    71.74464193
 B      6   1   2     3.388714638965   109.17203579   302.07214007
 B     11   6   1     3.554829971493    71.81711720   103.92480185

---------------------
BASIS SET INFORMATION
---------------------
There are 1 groups of distinct atoms

 Group   1 Type B   : 7s4p1d contracted to 3s2p1d pattern {511/31/1}

Atom   0B    basis set group =>   1
Atom   1B    basis set group =>   1
Atom   2B    basis set group =>   1
Atom   3B    basis set group =>   1
Atom   4B    basis set group =>   1
Atom   5B    basis set group =>   1
Atom   6B    basis set group =>   1
Atom   7B    basis set group =>   1
Atom   8B    basis set group =>   1
Atom   9B    basis set group =>   1
Atom  10B    basis set group =>   1
Atom  11B    basis set group =>   1
---------------------------------
AUXILIARY/J BASIS SET INFORMATION
---------------------------------
There are 1 groups of distinct atoms

 Group   1 Type B   : 12s5p4d2f1g contracted to 6s4p3d1f1g pattern {711111/2111/211/2/1}

Atom   0B    basis set group =>   1
Atom   1B    basis set group =>   1
Atom   2B    basis set group =>   1
Atom   3B    basis set group =>   1
Atom   4B    basis set group =>   1
Atom   5B    basis set group =>   1
Atom   6B    basis set group =>   1
Atom   7B    basis set group =>   1
Atom   8B    basis set group =>   1
Atom   9B    basis set group =>   1
Atom  10B    basis set group =>   1
Atom  11B    basis set group =>   1


           ************************************************************
           *        Program running with 8 parallel MPI-processes     *
           *              working on a common directory               *
           ************************************************************
------------------------------------------------------------------------------
                             ORCA STARTUP CALCULATIONS
                           -- RI-GTO INTEGRALS CHOSEN --
------------------------------------------------------------------------------
------------------------------------------------------------------------------
                   ___                                                        
                  /   \      - P O W E R E D   B Y -                         
                 /     \                                                     
                 |  |  |   _    _      __       _____    __    __             
                 |  |  |  | |  | |    /  \     |  _  \  |  |  /  |          
                  \  \/   | |  | |   /    \    | | | |  |  | /  /          
                 / \  \   | |__| |  /  /\  \   | |_| |  |  |/  /          
                |  |  |   |  __  | /  /__\  \  |    /   |      \           
                |  |  |   | |  | | |   __   |  |    \   |  |\   \          
                \     /   | |  | | |  |  |  |  | |\  \  |  | \   \       
                 \___/    |_|  |_| |__|  |__|  |_| \__\ |__|  \__/        
                                                                              
                      - O R C A' S   B I G   F R I E N D -                    
                                      &                                       
                       - I N T E G R A L  F E E D E R -                       
                                                                              
 v1 FN, 2020, v2 2021, v3 2022-2024                                           
------------------------------------------------------------------------------


----------------------
SHARK INTEGRAL PACKAGE
----------------------

Number of atoms                             ...     12
Number of basis functions                   ...    168
Number of shells                            ...     72
Maximum angular momentum                    ...      2
Integral batch strategy                     ... SHARK/LIBINT Hybrid
RI-J (if used) integral strategy            ... SPLIT-RIJ (Revised 2003 algorithm where possible)
Printlevel                                  ...      1
Contraction scheme used                     ... SEGMENTED contraction
Prescreening option                         ... SCHWARTZ
   Thresh                                   ... 2.500e-11
   Tcut                                     ... 2.500e-12
   Tpresel                                  ... 2.500e-12 
Coulomb Range Separation                    ... NOT USED
Exchange Range Separation                   ... NOT USED
Multipole approximations                    ... NOT USED
Finite Nucleus Model                        ... NOT USED
CABS basis                                  ... NOT available
Auxiliary Coulomb fitting basis             ... AVAILABLE
   # of basis functions in Aux-J            ...    588
   # of shells in Aux-J                     ...    180
   Maximum angular momentum in Aux-J        ...      4
Auxiliary J/K fitting basis                 ... NOT available
Auxiliary Correlation fitting basis         ... NOT available
Auxiliary 'external' fitting basis          ... NOT available

Checking pre-screening integrals            ... done (  0.0 sec) Dimension = 72
   => SHARK Basis and OBASIS are compatible. Storing Pre-screening
Shell pair information
Shell pair cut-off parameter TPreSel        ...   2.5e-12
Total number of shell pairs                 ...      2628
Shell pairs after pre-screening             ...      2590
Total number of primitive shell pairs       ...     10596
Primitive shell pairs kept                  ...      7896
          la=0 lb=0:    628 shell pairs
          la=1 lb=0:    864 shell pairs
          la=1 lb=1:    300 shell pairs
          la=2 lb=0:    432 shell pairs
          la=2 lb=1:    288 shell pairs
          la=2 lb=2:     78 shell pairs

Checking whether 4 symmetric matrices of dimension 168 fit in memory
:Max Core in MB      =   2500.00
 MB in use           =      6.91
 MB left             =   2493.09
 MB needed           =      0.43
 Data fit in memory  = YES
Calculating RI/J V-Matrix + Cholesky decomp.... done (  0.0 sec)
Calculating Nuclear repulsion               ... done (  0.0 sec) ENN=    332.936249524839 Eh

Diagonalization of the overlap matrix:
Smallest eigenvalue                        ... 4.884e-04
Time for diagonalization                   ...    0.004 sec
Threshold for overlap eigenvalues          ... 1.000e-07
Number of eigenvalues below threshold      ... 0
Time for construction of square roots      ...    0.002 sec
Total time needed                          ...    0.007 sec

-------------------
DFT GRID GENERATION
-------------------

General Integration Accuracy     IntAcc      ... 4.388
Radial Grid Type                 RadialGrid  ... OptM3 with GC (2021)
Angular Grid (max. ang.)         AngularGrid ... 4 (Lebedev-302)
Angular grid pruning method      GridPruning ... 4 (adaptive)
Weight generation scheme         WeightScheme... mBecke (2022)
Basis function cutoff            BFCut       ... 1.0000e-11
Integration weight cutoff        WCut        ... 1.0000e-14
Partially contracted basis set               ... off
Rotationally invariant grid construction     ... off
Angular grids for H and He will be reduced by one unit

Total number of grid points                  ...    70919
Total number of batches                      ...     1114
Average number of points per batch           ...       63
Average number of grid points per atom       ...     5910
Grids setup in   1.1 sec
Initializing property integral containers    ... done (  0.1 sec)

SHARK setup successfully completed in   1.4 seconds

Maximum memory used throughout the entire STARTUP-calculation: 19.9 MB


           ************************************************************
           *        Program running with 8 parallel MPI-processes     *
           *              working on a common directory               *
           ************************************************************
-------------------------------------------------------------------------------
                                 ORCA GUESS
                   Start orbitals & Density for SCF / CASSCF
-------------------------------------------------------------------------------

------------
SCF SETTINGS
------------
Hamiltonian:
 Density Functional     Method          .... DFT(GTOs)
 Exchange Functional    Exchange        .... B88
   X-Alpha parameter    XAlpha          ....  0.666667
   Becke's b parameter  XBeta           ....  0.004200
 Correlation Functional Correlation     .... P86
 LDA part of GGA corr.  LDAOpt          .... PW91-LDA
 Gradients option       PostSCFGGA      .... off
   NL short-range parameter             ....  4.400000
 RI-approximation to the Coulomb term is turned on
   Number of AuxJ basis functions       .... 588


General Settings:
 Integral files         IntName         .... icosahedron_nn2.00_perturb1
 Hartree-Fock type      HFTyp           .... RHF
 Total Charge           Charge          ....    0
 Multiplicity           Mult            ....    1
 Number of Electrons    NEL             ....   60
 Basis Dimension        Dim             ....  168
 Nuclear Repulsion      ENuc            ....    332.9362495248 Eh

Convergence Acceleration:
 AO-DIIS                CNVDIIS         .... on
   Start iteration      DIISMaxIt       ....     0
   Startup error        DIISStart       ....  0.200000
   # of expansion vecs  DIISMaxEq       ....     5
   Bias factor          DIISBfac        ....   1.050
   Max. coefficient     DIISMaxC        ....  10.000
 MO-DIIS                CNVKDIIS        .... off
 Trust-Rad. Augm. Hess. CNVTRAH         .... auto
   Auto Start mean grad. ratio tolernc. ....  1.125000
   Auto Start start iteration           ....    50
   Auto Start num. interpolation iter.  ....    10
   Max. Number of Micro iterations      ....    24
   Max. Number of Macro iterations      .... Maxiter - #DIIS iter
   Number of Davidson start vectors     ....     2
   Converg. threshold    (grad. norm)   ....   1.000e-05
   Grad. Scal. Fac. for Micro threshold ....   0.100
   Minimum threshold for Micro iter.    ....   1.000e-02
   NR start threshold (gradient norm)   ....   1.000e-04
   Initial trust radius                 ....   0.400
   Minimum AH scaling param. (alpha)    ....   1.000
   Maximum AH scaling param. (alpha)    .... 1000.000
   Quad. conv. algorithm                .... NR
   White noise on init. David. guess    .... on
   Maximum white noise                  ....   0.010
   Pseudo random numbers                .... off
   Inactive MOs                         .... canonical
   Orbital update algorithm             .... Taylor
   Preconditioner                       .... Diag
   Full preconditioner red. dimension   ....   250
 SOSCF                 CNVSOSCF           .... on
   Start iteration     SOSCFMaxIt         ....   150
   Startup grad/error  SOSCFStart         ....  0.001000
   Hessian update      SOSCFHessUp        .... L-BFGS
   Autom. constraints  SOSCFAutoConstrain .... off
 Level Shifting         CNVShift        .... on
   Level shift para.    LevelShift      ....    0.2500
   Turn off err/grad.   ShiftErr        ....    0.0000
 Zerner damping         CNVZerner       .... off
 Static damping         CNVDamp         .... on
   Fraction old density DampFac         ....    0.8500
   Max. Damping (<1)    DampMax         ....    0.9800
   Min. Damping (>=0)   DampMin         ....    0.0000
   Turn off err/grad.   DampErr         ....    0.0300

SCF Procedure:
 Maximum # iterations   MaxIter         ....   125
 SCF integral mode      SCFMode         .... Direct
   Integral package                     .... SHARK and LIBINT hybrid scheme
 Reset frequency        DirectResetFreq ....    20
 Integral Threshold     Thresh          ....  2.500e-11 Eh
 Primitive CutOff       TCut            ....  2.500e-12 Eh

Convergence Tolerance:
 Convergence Check Mode ConvCheckMode   .... Total+1el-Energy
 Convergence forced     ConvForced      .... 0
 Energy Change          TolE            ....  1.000e-08 Eh
 1-El. energy change                    ....  1.000e-05 Eh
 Orbital Gradient       TolG            ....  1.000e-05
 Orbital Rotation angle TolX            ....  1.000e-05
 DIIS Error             TolErr          ....  5.000e-07

------------------------------
INITIAL GUESS: MODEL POTENTIAL
------------------------------
Loading Hartree-Fock densities                     ... done
Calculating cut-offs                               ... done
Initializing the effective Hamiltonian             ... done
Setting up the integral package (SHARK)            ... done
Starting the Coulomb interaction                   ... done (   0.0 sec)
Making the grid                                    ... done (   0.2 sec)
Mapping shells                                     ... done
Starting the XC term evaluation                    ... done (   0.1 sec)
  promolecular density results
     # of electrons  =     59.999285495
     EX              =    -45.326150606
     EC              =     -1.965149682
     EX+EC           =    -47.291300288
Transforming the Hamiltonian                       ... done (   0.1 sec)
Diagonalizing the Hamiltonian                      ... done (   0.0 sec)
Back transforming the eigenvectors                 ... done (   0.0 sec)
Now organizing SCF variables                       ... done
                      ------------------
                      INITIAL GUESS DONE (   0.4 sec)
                      ------------------
             **** ENERGY FILE WAS UPDATED (icosahedron_nn2.00_perturb1.en.tmp) ****
Finished Guess after   1.0 sec
Maximum memory used throughout the entire GUESS-calculation: 9.7 MB


           ************************************************************
           *        Program running with 8 parallel MPI-processes     *
           *              working on a common directory               *
           ************************************************************

-------------------------------------------------------------------------------------------
                                      ORCA LEAN-SCF
                              memory conserving SCF solver
-------------------------------------------------------------------------------------------

----------------------------------------D-I-I-S--------------------------------------------
Iteration    Energy (Eh)           Delta-E    RMSDP     MaxDP     DIISErr   Damp  Time(sec)
-------------------------------------------------------------------------------------------
               ***  Starting incremental Fock matrix formation  ***
    1    -296.9896511407241633     0.00e+00  7.42e-03  4.74e-02  7.51e-02  0.850   0.6
Warning: op=0 Small HOMO/LUMO gap (  -0.055) - skipping pre-diagonalization
         Will do a full diagonalization
    2    -297.0515956007682234    -6.19e-02  8.90e-03  6.40e-02  5.55e-02  0.850   0.4
                               ***Turning on AO-DIIS***
    3    -297.0889359141838213    -3.73e-02  6.29e-03  5.71e-02  3.21e-02  0.850   0.3
    4    -297.1082637021518167    -1.93e-02  4.84e-03  3.86e-02  2.14e-02  0.850   0.3
    5    -297.1209920573845693    -1.27e-02  2.55e-02  2.20e-01  1.54e-02  0.000   0.3
    6    -297.1676747200606314    -4.67e-02  4.40e-03  3.87e-02  1.67e-02  0.000   0.4
    7    -297.1752373004582068    -7.56e-03  2.39e-03  2.69e-02  8.24e-03  0.000   0.3
    8    -297.1769207394880823    -1.68e-03  1.30e-03  1.01e-02  4.32e-03  0.000   0.4
    9    -297.1774076013849708    -4.87e-04  1.04e-03  7.02e-03  2.29e-03  0.000   0.4
   10    -297.1776556142858681    -2.48e-04  8.64e-04  6.08e-03  1.12e-03  0.000   0.3
                              *** Initializing SOSCF ***
---------------------------------------S-O-S-C-F--------------------------------------
Iteration    Energy (Eh)           Delta-E    RMSDP     MaxDP     MaxGrad    Time(sec)
--------------------------------------------------------------------------------------
   11    -297.1777443967898762    -8.88e-05  5.07e-04  2.84e-03  6.78e-04     0.3
               *** Restarting incremental Fock matrix formation ***
   12    -297.1777961400396180    -5.17e-05  8.80e-04  4.96e-03  1.22e-03     0.3
   13    -297.1778539835169113    -5.78e-05  3.81e-03  2.07e-02  5.96e-04     0.3
   14    -297.1777490412687257     1.05e-04  1.51e-03  7.11e-03  2.22e-03     0.3
   15    -297.1779094366601157    -1.60e-04  1.32e-03  7.55e-03  5.50e-04     0.3
   16    -297.1778515260775748     5.79e-05  8.47e-04  4.94e-03  1.21e-03     0.3
   17    -297.1779206734421450    -6.91e-05  1.22e-03  8.14e-03  6.36e-04     0.3
   18    -297.1778525208593464     6.82e-05  8.44e-04  4.91e-03  1.14e-03     0.4
   19    -297.1779376170513842    -8.51e-05  3.05e-04  2.35e-03  1.54e-04     0.6
   20    -297.1779316020621309     6.01e-06  2.17e-04  1.46e-03  4.83e-04     0.4
   21    -297.1779407286747983    -9.13e-06  2.83e-04  2.17e-03  9.19e-05     1.0
   22    -297.1779403375667243     3.91e-07  1.92e-04  1.23e-03  1.70e-04     1.7
   23    -297.1779431851432491    -2.85e-06  2.69e-04  1.70e-03  8.62e-05     0.7
   24    -297.1779438201178891    -6.35e-07  3.57e-04  2.31e-03  4.42e-05     0.9
   25    -297.1779443756588535    -5.56e-07  7.91e-05  6.00e-04  6.66e-05     1.1
   26    -297.1779446323045022    -2.57e-07  1.20e-04  7.40e-04  5.11e-05     0.4
   27    -297.1779448531085563    -2.21e-07  1.27e-04  7.83e-04  3.39e-05     0.5
   28    -297.1779450187584644    -1.66e-07  2.16e-04  1.41e-03  3.49e-05     0.3
   29    -297.1779451217024643    -1.03e-07  5.53e-05  4.10e-04  2.09e-05     0.4
   30    -297.1779451690925953    -4.74e-08  3.46e-05  2.37e-04  1.30e-05     0.4
   31    -297.1779451809034072    -1.18e-08  2.24e-05  1.51e-04  1.03e-05     0.4
               *** Restarting incremental Fock matrix formation ***
   32    -297.1779451903770450    -9.47e-09  2.99e-05  1.91e-04  5.59e-06     0.5
                 **** Energy Check signals convergence ****

               *****************************************************
               *                     SUCCESS                       *
               *           SCF CONVERGED AFTER  32 CYCLES          *
               *****************************************************

             **** ENERGY FILE WAS UPDATED (icosahedron_nn2.00_perturb1.en.tmp) ****

----------------
TOTAL SCF ENERGY
----------------

Total Energy       :       -297.17794519426013 Eh           -8086.62300 eV

Components:
Nuclear Repulsion  :        332.93624952483947 Eh            9059.65593 eV
Electronic Energy  :       -630.11419471909960 Eh          -17146.27894 eV
One Electron Energy:      -1053.40885202010918 Eh          -28664.71215 eV
Two Electron Energy:        423.29465730100958 Eh           11518.43321 eV

Virial components:
Potential Energy   :       -587.88223419570033 Eh          -15997.08887 eV
Kinetic Energy     :        290.70428900144020 Eh            7910.46586 eV
Virial Ratio       :          2.02226887059375

DFT components:
N(Alpha)           :       30.000076430194 electrons
N(Beta)            :       30.000076430194 electrons
N(Total)           :       60.000152860387 electrons
E(X)               :      -45.472172443313 Eh       
E(C)               :       -1.995199210020 Eh       
E(XC)              :      -47.467371653334 Eh       

---------------
SCF CONVERGENCE
---------------

  Last Energy change         ...    9.4736e-09  Tolerance :   1.0000e-08
  Last MAX-Density change    ...    1.9070e-04  Tolerance :   1.0000e-07
  Last RMS-Density change    ...    2.9876e-05  Tolerance :   5.0000e-09
  Last DIIS Error            ...    6.7826e-04  Tolerance :   5.0000e-07
  Last Orbital Gradient      ...    5.5914e-06  Tolerance :   1.0000e-05
  Last Orbital Rotation      ...    2.7864e-04  Tolerance :   1.0000e-05


----------------
ORBITAL ENERGIES
----------------

  NO   OCC          E(Eh)            E(eV) 
   0   2.0000      -6.663478      -181.3225 
   1   2.0000      -6.650973      -180.9822 
   2   2.0000      -6.649276      -180.9360 
   3   2.0000      -6.647288      -180.8819 
   4   2.0000      -6.645162      -180.8240 
   5   2.0000      -6.642541      -180.7527 
   6   2.0000      -6.629642      -180.4017 
   7   2.0000      -6.624914      -180.2731 
   8   2.0000      -6.623758      -180.2416 
   9   2.0000      -6.622279      -180.2014 
  10   2.0000      -6.621431      -180.1783 
  11   2.0000      -6.620426      -180.1509 
  12   2.0000      -0.654935       -17.8217 
  13   2.0000      -0.568613       -15.4727 
  14   2.0000      -0.546962       -14.8836 
  15   2.0000      -0.519054       -14.1242 
  16   2.0000      -0.448203       -12.1962 
  17   2.0000      -0.414660       -11.2835 
  18   2.0000      -0.398867       -10.8537 
  19   2.0000      -0.395603       -10.7649 
  20   2.0000      -0.382409       -10.4059 
  21   2.0000      -0.307754        -8.3744 
  22   2.0000      -0.303467        -8.2578 
  23   2.0000      -0.292748        -7.9661 
  24   2.0000      -0.279075        -7.5940 
  25   2.0000      -0.273624        -7.4457 
  26   2.0000      -0.229045        -6.2326 
  27   2.0000      -0.221968        -6.0401 
  28   2.0000      -0.218938        -5.9576 
  29   2.0000      -0.213215        -5.8019 
  30   0.0000      -0.211078        -5.7437 
  31   0.0000      -0.195019        -5.3067 
  32   0.0000      -0.167836        -4.5671 
  33   0.0000      -0.157714        -4.2916 
  34   0.0000      -0.150118        -4.0849 
  35   0.0000      -0.143438        -3.9031 
  36   0.0000      -0.136865        -3.7243 
  37   0.0000      -0.105885        -2.8813 
  38   0.0000      -0.100761        -2.7419 
  39   0.0000      -0.077886        -2.1194 
  40   0.0000      -0.037238        -1.0133 
*Only the first 10 virtual orbitals were printed.

                    ********************************
                    * MULLIKEN POPULATION ANALYSIS *
                    ********************************

-----------------------
MULLIKEN ATOMIC CHARGES
-----------------------
   0 B :    0.005903
   1 B :    0.011502
   2 B :    0.050631
   3 B :    0.033852
   4 B :   -0.004657
   5 B :    0.081792
   6 B :    0.002665
   7 B :   -0.106138
   8 B :   -0.045918
   9 B :   -0.002380
  10 B :   -0.052790
  11 B :    0.025538
Sum of atomic charges:    0.0000000

--------------------------------
MULLIKEN REDUCED ORBITAL CHARGES
--------------------------------
  0 B s       :     3.179826  s :     3.179826
      pz      :     0.503715  p :     1.772476
      px      :     0.664796
      py      :     0.603964
      dz2     :     0.006920  d :     0.041795
      dxz     :     0.009192
      dyz     :     0.007110
      dx2y2   :     0.007994
      dxy     :     0.010580

  1 B s       :     3.221914  s :     3.221914
      pz      :     0.627230  p :     1.724308
      px      :     0.595696
      py      :     0.501382
      dz2     :     0.006621  d :     0.042276
      dxz     :     0.008860
      dyz     :     0.009386
      dx2y2   :     0.009514
      dxy     :     0.007895

  2 B s       :     3.114699  s :     3.114699
      pz      :     0.609932  p :     1.788884
      px      :     0.568097
      py      :     0.610855
      dz2     :     0.009545  d :     0.045786
      dxz     :     0.008822
      dyz     :     0.009075
      dx2y2   :     0.009576
      dxy     :     0.008768

  3 B s       :     3.174446  s :     3.174446
      pz      :     0.594465  p :     1.757293
      px      :     0.523080
      py      :     0.639749
      dz2     :     0.006976  d :     0.034408
      dxz     :     0.008312
      dyz     :     0.005879
      dx2y2   :     0.006776
      dxy     :     0.006465

  4 B s       :     3.366566  s :     3.366566
      pz      :     0.635375  p :     1.601300
      px      :     0.562946
      py      :     0.402979
      dz2     :     0.006485  d :     0.036791
      dxz     :     0.007679
      dyz     :     0.009042
      dx2y2   :     0.007743
      dxy     :     0.005842

  5 B s       :     3.247375  s :     3.247375
      pz      :     0.540638  p :     1.628277
      px      :     0.488675
      py      :     0.598964
      dz2     :     0.009495  d :     0.042557
      dxz     :     0.008457
      dyz     :     0.007023
      dx2y2   :     0.009477
      dxy     :     0.008105

  6 B s       :     3.041651  s :     3.041651
      pz      :     0.639676  p :     1.913587
      px      :     0.600219
      py      :     0.673692
      dz2     :     0.006315  d :     0.042097
      dxz     :     0.008965
      dyz     :     0.007459
      dx2y2   :     0.008513
      dxy     :     0.010845

  7 B s       :     3.141877  s :     3.141877
      pz      :     0.680097  p :     1.921060
      px      :     0.661570
      py      :     0.579393
      dz2     :     0.008408  d :     0.043200
      dxz     :     0.011160
      dyz     :     0.009262
      dx2y2   :     0.008287
      dxy     :     0.006082

  8 B s       :     3.559007  s :     3.559007
      pz      :     0.476948  p :     1.448676
      px      :     0.439883
      py      :     0.531844
      dz2     :     0.009013  d :     0.038235
      dxz     :     0.007450
      dyz     :     0.007838
      dx2y2   :     0.007034
      dxy     :     0.006900

  9 B s       :     3.386435  s :     3.386435
      pz      :     0.463049  p :     1.586613
      px      :     0.543637
      py      :     0.579927
      dz2     :     0.005071  d :     0.029331
      dxz     :     0.007021
      dyz     :     0.004469
      dx2y2   :     0.006063
      dxy     :     0.006707

 10 B s       :     3.377051  s :     3.377051
      pz      :     0.631812  p :     1.636046
      px      :     0.507423
      py      :     0.496812
      dz2     :     0.006631  d :     0.039693
      dxz     :     0.007208
      dyz     :     0.009746
      dx2y2   :     0.009001
      dxy     :     0.007107

 11 B s       :     3.562090  s :     3.562090
      pz      :     0.451247  p :     1.374505
      px      :     0.394226
      py      :     0.529032
      dz2     :     0.009454  d :     0.037866
      dxz     :     0.007125
      dyz     :     0.006707
      dx2y2   :     0.007084
      dxy     :     0.007497



                     *******************************
                     * LOEWDIN POPULATION ANALYSIS *
                     *******************************

----------------------
LOEWDIN ATOMIC CHARGES
----------------------
   0 B :    0.032210
   1 B :   -0.034472
   2 B :   -0.058391
   3 B :    0.011946
   4 B :    0.044190
   5 B :   -0.045676
   6 B :   -0.000125
   7 B :    0.015901
   8 B :   -0.023215
   9 B :    0.097299
  10 B :   -0.009194
  11 B :   -0.030475

-------------------------------
LOEWDIN REDUCED ORBITAL CHARGES
-------------------------------
  0 B s       :     2.826050  s :     2.826050
      pz      :     0.589944  p :     2.044103
      px      :     0.728311
      py      :     0.725848
      dz2     :     0.017889  d :     0.097636
      dxz     :     0.023366
      dyz     :     0.011903
      dx2y2   :     0.020721
      dxy     :     0.023758

  1 B s       :     2.886122  s :     2.886122
      pz      :     0.732367  p :     2.049505
      px      :     0.662754
      py      :     0.654384
      dz2     :     0.013256  d :     0.098845
      dxz     :     0.022693
      dyz     :     0.024413
      dx2y2   :     0.020744
      dxy     :     0.017738

  2 B s       :     2.837803  s :     2.837803
      pz      :     0.715502  p :     2.110985
      px      :     0.681935
      py      :     0.713548
      dz2     :     0.023860  d :     0.109602
      dxz     :     0.017262
      dyz     :     0.024269
      dx2y2   :     0.022089
      dxy     :     0.022122

  3 B s       :     2.845892  s :     2.845892
      pz      :     0.720698  p :     2.062760
      px      :     0.605495
      py      :     0.736566
      dz2     :     0.016393  d :     0.079403
      dxz     :     0.022041
      dyz     :     0.009749
      dx2y2   :     0.018206
      dxy     :     0.013013

  4 B s       :     2.939575  s :     2.939575
      pz      :     0.754414  p :     1.932891
      px      :     0.647014
      py      :     0.531463
      dz2     :     0.013018  d :     0.083343
      dxz     :     0.020755
      dyz     :     0.022209
      dx2y2   :     0.014947
      dxy     :     0.012414

  5 B s       :     2.891714  s :     2.891714
      pz      :     0.665013  p :     2.054929
      px      :     0.670932
      py      :     0.718985
      dz2     :     0.021229  d :     0.099032
      dxz     :     0.017069
      dyz     :     0.020093
      dx2y2   :     0.021017
      dxy     :     0.019625

  6 B s       :     2.769084  s :     2.769084
      pz      :     0.677652  p :     2.131599
      px      :     0.663418
      py      :     0.790529
      dz2     :     0.014767  d :     0.099442
      dxz     :     0.025307
      dyz     :     0.012687
      dx2y2   :     0.022382
      dxy     :     0.024299

  7 B s       :     2.835141  s :     2.835141
      pz      :     0.782516  p :     2.049557
      px      :     0.721319
      py      :     0.545722
      dz2     :     0.016829  d :     0.099400
      dxz     :     0.029034
      dyz     :     0.023503
      dx2y2   :     0.016738
      dxy     :     0.013296

  8 B s       :     3.022455  s :     3.022455
      pz      :     0.663629  p :     1.917483
      px      :     0.606128
      py      :     0.647725
      dz2     :     0.020636  d :     0.083278
      dxz     :     0.015295
      dyz     :     0.018224
      dx2y2   :     0.013173
      dxy     :     0.015950

  9 B s       :     3.023888  s :     3.023888
      pz      :     0.514351  p :     1.816508
      px      :     0.630089
      py      :     0.672068
      dz2     :     0.011831  d :     0.062305
      dxz     :     0.016455
      dyz     :     0.006608
      dx2y2   :     0.014810
      dxy     :     0.012601

 10 B s       :     2.950559  s :     2.950559
      pz      :     0.743653  p :     1.969434
      px      :     0.572950
      py      :     0.652832
      dz2     :     0.011522  d :     0.089200
      dxz     :     0.019010
      dyz     :     0.026581
      dx2y2   :     0.018340
      dxy     :     0.013748

 11 B s       :     3.076494  s :     3.076494
      pz      :     0.621412  p :     1.872121
      px      :     0.601194
      py      :     0.649514
      dz2     :     0.019778  d :     0.081860
      dxz     :     0.013820
      dyz     :     0.017493
      dx2y2   :     0.013292
      dxy     :     0.017477



                      *****************************
                      * MAYER POPULATION ANALYSIS *
                      *****************************

  NA   - Mulliken gross atomic population
  ZA   - Total nuclear charge
  QA   - Mulliken gross atomic charge
  VA   - Mayer's total valence
  BVA  - Mayer's bonded valence
  FA   - Mayer's free valence

  ATOM       NA         ZA         QA         VA         BVA        FA
  0 B      4.9941     5.0000     0.0059     3.3636     3.3636     0.0000
  1 B      4.9885     5.0000     0.0115     3.0201     3.0201    -0.0000
  2 B      4.9494     5.0000     0.0506     3.0976     3.0976     0.0000
  3 B      4.9661     5.0000     0.0339     3.3837     3.3837     0.0000
  4 B      5.0047     5.0000    -0.0047     3.1134     3.1134     0.0000
  5 B      4.9182     5.0000     0.0818     2.8969     2.8969     0.0000
  6 B      4.9973     5.0000     0.0027     3.5453     3.5453     0.0000
  7 B      5.1061     5.0000    -0.1061     3.4198     3.4198    -0.0000
  8 B      5.0459     5.0000    -0.0459     2.7077     2.7077    -0.0000
  9 B      5.0024     5.0000    -0.0024     3.0933     3.0933     0.0000
 10 B      5.0528     5.0000    -0.0528     3.0129     3.0129     0.0000
 11 B      4.9745     5.0000     0.0255     2.5468     2.5468    -0.0000

  Mayer bond orders larger than 0.100000
B(  0-B ,  1-B ) :   0.4801 B(  0-B ,  2-B ) :   0.3898 B(  0-B ,  4-B ) :   0.1057 
B(  0-B ,  5-B ) :   0.4840 B(  0-B ,  6-B ) :   0.9207 B(  0-B ,  7-B ) :   0.5410 
B(  0-B ,  8-B ) :   0.1158 B(  0-B , 10-B ) :   0.1412 B(  1-B ,  2-B ) :   0.4636 
B(  1-B ,  3-B ) :   0.4502 B(  1-B ,  4-B ) :   0.2761 B(  1-B ,  7-B ) :   0.3303 
B(  1-B ,  8-B ) :   0.6019 B(  1-B ,  9-B ) :   0.1562 B(  1-B , 10-B ) :   0.1262 
B(  2-B ,  4-B ) :   0.5604 B(  2-B ,  6-B ) :   0.5357 B(  2-B ,  8-B ) :   0.4844 
B(  2-B , 11-B ) :   0.3248 B(  3-B ,  6-B ) :   0.1500 B(  3-B ,  7-B ) :   0.8669 
B(  3-B ,  8-B ) :   0.4037 B(  3-B ,  9-B ) :   0.8726 B(  3-B , 11-B ) :   0.3722 
B(  4-B ,  6-B ) :   0.7330 B(  4-B ,  8-B ) :   0.3194 B(  4-B ,  9-B ) :   0.6449 
B(  4-B , 10-B ) :   0.2615 B(  5-B ,  6-B ) :   0.3805 B(  5-B ,  7-B ) :   0.5390 
B(  5-B ,  8-B ) :   0.3390 B(  5-B ,  9-B ) :   0.1027 B(  5-B , 10-B ) :   0.5768 
B(  5-B , 11-B ) :   0.3098 B(  6-B , 10-B ) :   0.5154 B(  7-B ,  9-B ) :   0.1198 
B(  7-B , 10-B ) :   0.2781 B(  7-B , 11-B ) :   0.4401 B(  8-B ,  9-B ) :   0.2551 
B(  9-B , 10-B ) :   0.4210 B(  9-B , 11-B ) :   0.2931 B( 10-B , 11-B ) :   0.5375 


-------
TIMINGS
-------

Total SCF time: 0 days 0 hours 0 min 16 sec 

Total time                  ....      16.720 sec
Sum of individual times     ....      16.180 sec  ( 96.8%)

SCF preparation             ....       0.549 sec  (  3.3%)
Fock matrix formation       ....      13.133 sec  ( 78.5%)
  Startup                   ....       0.057 sec  (  0.4% of F)
  Split-RI-J                ....       3.870 sec  ( 29.5% of F)
  XC integration            ....       8.711 sec  ( 66.3% of F)
    XC Preparation          ....       0.000 sec  (  0.0% of XC)
    Basis function eval.    ....       1.502 sec  ( 17.2% of XC)
    Density eval.           ....       1.146 sec  ( 13.2% of XC)
    XC-Functional eval.     ....       0.177 sec  (  2.0% of XC)
    XC-Potential eval.      ....       1.473 sec  ( 16.9% of XC)
Diagonalization             ....       0.000 sec  (  0.0%)
Density matrix formation    ....       0.329 sec  (  2.0%)
Total Energy calculation    ....       0.309 sec  (  1.9%)
Population analysis         ....       0.044 sec  (  0.3%)
Orbital Transformation      ....       0.072 sec  (  0.4%)
Orbital Orthonormalization  ....       0.000 sec  (  0.0%)
DIIS solution               ....       0.396 sec  (  2.4%)
SOSCF solution              ....       1.347 sec  (  8.1%)
Finished LeanSCF after  16.8 sec

Maximum memory used throughout the entire LEANSCF-calculation: 10.2 MB


-------------------------------------------------------------------------------
                          DFT DISPERSION CORRECTION                            
                                                                               
                              DFTD3 V3.1  Rev 1                                
                          USING Becke-Johnson damping                          
-------------------------------------------------------------------------------
The BP86 functional is recognized
Active option DFTDOPT                   ...         4   

molecular C6(AA) [au] = 5952.925871 


            DFT-D V3
 parameters
 s6 scaling factor         :     1.0000 
 a1 scaling factor         :     0.3946 
 s8 scaling factor         :     3.2822 
 a2 scaling factor         :     4.8516 
 ad hoc parameters k1-k3   :    16.0000     1.3333    -4.0000 

 Edisp/kcal,au: -31.037907651595  -0.049462048979 
 E6   /kcal   :  -8.820002611 
 E8   /kcal   : -22.217905041 
 % E8         :  71.583127606 

-------------------------   ----------------
Dispersion correction           -0.049462049
-------------------------   ----------------


-------------------------   --------------------
FINAL SINGLE POINT ENERGY      -297.227407243239
-------------------------   --------------------



           ************************************************************
           *        Program running with 8 parallel MPI-processes     *
           *              working on a common directory               *
           ************************************************************
------------------------------------------------------------------------------
                         ORCA SCF GRADIENT CALCULATION
------------------------------------------------------------------------------

Nuc. rep. gradient        (SHARK) ... done (  0.0 sec)
HCore & Overlap gradient  (SHARK) ... done (  0.1 sec)
Split-RIJ-J gradient      (SHARK) ... done (  0.4 sec)
XC gradient                       ... done (  1.0 sec)
Dispersion correction             ... done (  0.1 sec)

-------------------
DISPERSION GRADIENT
-------------------

   1   B   :   -0.000016179    0.000001777    0.001362412
   2   B   :    0.002562383    0.001559040    0.000680278
   3   B   :    0.000496516    0.000105584    0.001255599
   4   B   :   -0.000872540    0.004738685   -0.003004410
   5   B   :    0.003852878   -0.003724551    0.002346287
   6   B   :   -0.001102943    0.000641327    0.001711557
   7   B   :    0.000906215    0.001060331    0.003544338
   8   B   :   -0.000903521    0.001757945    0.000339621
   9   B   :    0.000984648    0.000624685   -0.000384438
  10   B   :    0.001273664   -0.003803529   -0.007583603
  11   B   :   -0.003518464   -0.004545433    0.002001281
  12   B   :   -0.003662658    0.001584139   -0.002268923

Difference to translation invariance:
           :    0.0000000000   -0.0000000000    0.0000000000

Difference to rotation invariance:
           :    0.0000000000    0.0000000000    0.0000000000

Norm of the Dispersion gradient    ...    0.0153599414
RMS gradient                       ...    0.0025599902
MAX gradient                       ...    0.0075836026

------------------
CARTESIAN GRADIENT
------------------

   1   B   :    0.002310706   -0.054492353   -0.053626103
   2   B   :   -0.037538566   -0.042618389    0.003648130
   3   B   :   -0.050056699   -0.001356312   -0.028893910
   4   B   :   -0.001158516   -0.046944143    0.062769711
   5   B   :   -0.016989808    0.054094008   -0.001160325
   6   B   :    0.060464047    0.013525685   -0.032332112
   7   B   :    0.001252661    0.047309630   -0.057947438
   8   B   :    0.016547115   -0.056313252   -0.005036823
   9   B   :   -0.047484321   -0.013363522    0.031364318
  10   B   :   -0.001918721    0.047318020    0.050572560
  11   B   :    0.022653549    0.044337886    0.000664353
  12   B   :    0.051918551    0.008502742    0.029977640

Difference to translation invariance:
           :    0.0000000000   -0.0000000000   -0.0000000000

Difference to rotation invariance:
           :    0.0003619288   -0.0007817551   -0.0000366537

Norm of the Cartesian gradient     ...    0.2238492644
RMS gradient                       ...    0.0373082107
MAX gradient                       ...    0.0627697108

-------
TIMINGS
-------

Total SCF gradient time     ....        1.556 sec

Densities                   ....       0.001 sec  (  0.0%)
One electron gradient       ....       0.055 sec  (  3.6%)
RI-J Coulomb gradient       ....       0.419 sec  ( 26.9%)
XC gradient                 ....       1.007 sec  ( 64.7%)

Maximum memory used throughout the entire SCFGRAD-calculation: 29.7 MB
------------------------------------------------------------------------------
                         ORCA GEOMETRY RELAXATION STEP
------------------------------------------------------------------------------

Reading the OPT-File                    .... done
Getting information on internals        .... done
Copying old internal coords+grads       .... done
Making the new internal coordinates     .... (2022 redundants) done
Validating the new internal coordinates .... (2022 redundants) done
Calculating the B-matrix                .... done
Calculating the G,G- and P matrices     .... done
Transforming gradient to internals      .... done
Projecting the internal gradient        .... done
Number of atoms                         ....  12
Number of internal coordinates          .... 115
Current Energy                          ....  -297.227407243 Eh
Current gradient norm                   ....     0.223849264 Eh/bohr
Maximum allowed component of the step   ....  0.300
Current trust radius                    ....  0.300
Evaluating the initial hessian          ....  (Almloef) done
Projecting the Hessian                  .... done
Forming the augmented Hessian           .... done
Diagonalizing the augmented Hessian     .... done
Last element of RFO vector              ....  0.761999835
Lowest eigenvalues of augmented Hessian:
 -0.228672141  0.022584618  0.026480978  0.029026933  0.033978255
Length of the computed step             ....  0.849839051
Warning: the length of the step is outside the trust region - taking restricted step instead
The input lambda is                     ....     0.021501
   iter:   5  x=   -0.002824  g= 2908.504363 f(x)=    32.888145
   iter:  10  x=   -0.347332  g=    5.289700 f(x)=     0.698401
   iter:  15  x=   -0.808734  g=    0.200591 f(x)=     0.000238
The output lambda is                    ....    -0.808736 (18 iterations)
The final length of the internal step   ....  0.300000000
Converting the step to Cartesian space:
 Initial RMS(Int)=    0.0279751442
Transforming coordinates:
 Iter   0:  RMS(Cart)=    0.1028833443 RMS(Int)=    0.0278477888
 Iter   5:  RMS(Cart)=    0.0000000083 RMS(Int)=    0.0000000054
done
Storing new coordinates                 .... done

                                .--------------------.
          ----------------------|Geometry convergence|-------------------------
          Item                value                   Tolerance       Converged
          ---------------------------------------------------------------------
          RMS gradient        0.0252699832            0.0001000000      NO
          MAX gradient        0.0750221917            0.0003000000      NO
          RMS step            0.0279751442            0.0020000000      NO
          MAX step            0.0810172466            0.0040000000      NO
          -------------------------------------------------------------------------
          ........................................................
          Max(Bonds)      0.0429      Max(Angles)    2.48
          Max(Dihed)        2.85      Max(Improp)    0.00
          ---------------------------------------------------------------------

The optimization has not yet converged - more geometry cycles are needed


    ---------------------------------------------------------------------------
                         Redundant Internal Coordinates
                            (Angstroem and degrees)

        Definition                    Value    dE/dq     Step     New-Value
    ----------------------------------------------------------------------------
     1. B(B   2,B   0)                2.0932  0.070421 -0.0420    2.0512   
     2. B(B   2,B   1)                1.9341  0.026994 -0.0152    1.9189   
     3. B(B   4,B   2)                1.8378  0.047582 -0.0262    1.8115   
     4. B(B   5,B   0)                1.9485  0.075022 -0.0429    1.9057   
     5. B(B   6,B   2)                1.9276  0.039261 -0.0225    1.9051   
     6. B(B   6,B   4)                1.9420  0.033244 -0.0194    1.9226   
     7. B(B   6,B   0)                1.8466  0.033573 -0.0193    1.8272   
     8. B(B   7,B   5)                2.0084  0.025647 -0.0157    1.9927   
     9. B(B   7,B   3)                1.8491  0.069739 -0.0383    1.8108   
    10. B(B   7,B   0)                2.0195  0.060730 -0.0363    1.9831   
    11. B(B   8,B   2)                1.9816  0.037552 -0.0213    1.9602   
    12. B(B   8,B   1)                1.7168  0.003360 -0.0026    1.7142   
    13. B(B   9,B   4)                2.0929  0.068906 -0.0411    2.0518   
    14. B(B   9,B   3)                2.0312  0.062448 -0.0365    1.9948   
    15. B(B  10,B   5)                1.7932  0.023252 -0.0124    1.7808   
    16. B(B  11,B  10)                1.8811  0.021545 -0.0124    1.8687   
    17. B(B  11,B   7)                2.0361  0.049700 -0.0295    2.0066   
    18. A(B   6,B   0,B   7)          109.46  0.002300   -0.12    109.34   
    19. A(B   5,B   0,B   7)           60.78 -0.013190    0.81     61.59   
    20. A(B   5,B   0,B   6)           68.53  0.027205   -1.72     66.81   
    21. A(B   2,B   0,B   5)          114.96  0.032562   -2.10    112.86   
    22. A(B   2,B   0,B   7)          104.29  0.020502   -1.34    102.95   
    23. A(B   2,B   0,B   6)           58.18 -0.004529    0.31     58.50   
    24. A(B   2,B   1,B   8)           65.43  0.006731   -0.40     65.02   
    25. A(B   1,B   2,B   8)           51.99 -0.007569    0.44     52.43   
    26. A(B   4,B   2,B   6)           62.04 -0.003676    0.20     62.24   
    27. A(B   4,B   2,B   8)           75.28  0.029120   -1.76     73.52   
    28. A(B   0,B   2,B   8)          109.87  0.023296   -1.44    108.43   
    29. A(B   0,B   2,B   4)          104.55 -0.011021    0.70    105.26   
    30. A(B   0,B   2,B   1)           64.19  0.029728   -1.83     62.36   
    31. A(B   1,B   2,B   4)          109.47  0.016559   -1.01    108.46   
    32. A(B   1,B   2,B   6)          109.69  0.034682   -2.13    107.56   
    33. A(B   0,B   2,B   6)           54.49 -0.005560    0.37     54.86   
    34. A(B   6,B   2,B   8)          123.86  0.040160   -2.48    121.38   
    35. A(B   7,B   3,B   9)          103.71  0.010088   -0.70    103.00   
    36. A(B   2,B   4,B   9)          109.34  0.014892   -1.02    108.32   
    37. A(B   2,B   4,B   6)           61.25 -0.000422    0.02     61.27   
    38. A(B   6,B   4,B   9)          108.15  0.003163   -0.18    107.97   
    39. A(B   0,B   5,B  10)          109.17  0.031179   -1.98    107.19   
    40. A(B   0,B   5,B   7)           61.35  0.003257   -0.24     61.12   
    41. A(B   7,B   5,B  10)           99.50  0.016217   -0.96     98.55   
    42. A(B   2,B   6,B   4)           56.71  0.004098   -0.21     56.49   
    43. A(B   0,B   6,B   4)          110.49  0.006929   -0.42    110.07   
    44. A(B   0,B   6,B   2)           67.33  0.010089   -0.68     66.64   
    45. A(B   3,B   7,B   5)          121.20  0.012589   -0.85    120.35   
    46. A(B   0,B   7,B   5)           57.86  0.009933   -0.57     57.29   
    47. A(B   5,B   7,B  11)           64.43 -0.007324    0.41     64.84   
    48. A(B   3,B   7,B  11)           70.82  0.029956   -1.89     68.92   
    49. A(B   0,B   7,B   3)          115.37 -0.004410    0.19    115.56   
    50. A(B   0,B   7,B  11)          114.03  0.010742   -0.69    113.34   
    51. A(B   1,B   8,B   2)           62.58  0.000838   -0.04     62.54   
    52. A(B   3,B   9,B   4)          108.32  0.003354   -0.25    108.07   
    53. A(B   5,B  10,B  11)           71.82 -0.003384    0.11     71.92   
    54. A(B   7,B  11,B  10)           95.65  0.008624   -0.46     95.19   
    55. D(B   4,B   2,B   0,B   7)     65.56 -0.011852    0.85     66.41   
    56. D(B   6,B   2,B   0,B   5)     40.19 -0.004915    0.41     40.60   
    57. D(B   1,B   2,B   0,B   6)   -143.60 -0.029755    1.88   -141.72   
    58. D(B   4,B   2,B   0,B   5)      1.48 -0.007212    0.60      2.08   
    59. D(B   4,B   2,B   1,B   8)     51.80  0.019109   -1.16     50.64   
    60. D(B   6,B   2,B   1,B   8)    118.13  0.026962   -1.67    116.45   
    61. D(B   4,B   2,B   0,B   6)    -38.71 -0.002297    0.19    -38.52   
    62. D(B   1,B   2,B   0,B   7)    -39.33 -0.039310    2.54    -36.79   
    63. D(B   1,B   2,B   0,B   5)   -103.41 -0.034670    2.29   -101.12   
    64. D(B   0,B   2,B   1,B   8)    148.99  0.007887   -0.45    148.54   
    65. D(B   6,B   4,B   2,B   8)    142.34  0.032791   -2.04    140.30   
    66. D(B   9,B   4,B   2,B   0)    -65.40  0.004343   -0.36    -65.76   
    67. D(B   6,B   4,B   2,B   1)    102.53  0.031567   -1.95    100.58   
    68. D(B   9,B   4,B   2,B   1)      1.93  0.035311   -2.26     -0.32   
    69. D(B   6,B   4,B   2,B   0)     35.20  0.000599   -0.06     35.14   
    70. D(B   9,B   4,B   2,B   6)   -100.60  0.003744   -0.30   -100.90   
    71. D(B  10,B   5,B   0,B   7)    -90.53 -0.003480    0.14    -90.39   
    72. D(B  10,B   5,B   0,B   6)     38.53 -0.015653    0.97     39.50   
    73. D(B  10,B   5,B   0,B   2)      2.43 -0.001556   -0.02      2.41   
    74. D(B   7,B   5,B   0,B   6)    129.06 -0.012174    0.83    129.89   
    75. D(B   7,B   5,B   0,B   2)     92.96  0.001924   -0.16     92.79   
    76. D(B   4,B   6,B   2,B   0)   -136.74  0.007226   -0.49   -137.23   
    77. D(B   0,B   6,B   2,B   8)     91.37  0.000768   -0.03     91.34   
    78. D(B   0,B   6,B   2,B   4)    136.74 -0.007226    0.49    137.23   
    79. D(B   0,B   6,B   2,B   1)     34.57 -0.009351    0.62     35.19   
    80. D(B   4,B   6,B   0,B   7)    -57.39 -0.012164    0.83    -56.57   
    81. D(B   4,B   6,B   0,B   5)   -103.34 -0.015591    1.09   -102.25   
    82. D(B   4,B   6,B   0,B   2)     37.70  0.010016   -0.64     37.07   
    83. D(B   2,B   6,B   0,B   7)    -95.10 -0.022180    1.46    -93.64   
    84. D(B   4,B   6,B   2,B   1)   -102.17 -0.002125    0.13   -102.04   
    85. D(B   2,B   6,B   0,B   5)   -141.05 -0.025607    1.73   -139.32   
    86. D(B   2,B   6,B   4,B   9)    102.58  0.015644   -1.10    101.48   
    87. D(B   0,B   6,B   4,B   9)     60.12  0.002392   -0.21     59.90   
    88. D(B   0,B   6,B   4,B   2)    -42.46 -0.013252    0.89    -41.58   
    89. D(B   4,B   6,B   2,B   8)    -45.36  0.007993   -0.52    -45.89   
    90. D(B  11,B   7,B   5,B  10)    -39.75  0.008273   -0.53    -40.28   
    91. D(B  11,B   7,B   5,B   0)   -146.49 -0.018857    1.23   -145.25   
    92. D(B   3,B   7,B   5,B   0)   -102.18  0.007266   -0.41   -102.59   
    93. D(B   0,B   7,B   5,B  10)    106.74  0.027130   -1.76    104.97   
    94. D(B  11,B   7,B   3,B   9)     46.51  0.042917   -2.85     43.67   
    95. D(B   5,B   7,B   3,B   9)      4.67  0.031420   -2.11      2.56   
    96. D(B   0,B   7,B   3,B   9)    -61.68  0.018362   -1.30    -62.98   
    97. D(B  11,B   7,B   0,B   2)    -77.83 -0.043986    2.83    -75.01   
    98. D(B   5,B   7,B   0,B   6)    -50.03 -0.025521    1.66    -48.37   
    99. D(B   5,B   7,B   0,B   2)   -110.88 -0.026297    1.68   -109.20   
   100. D(B   3,B   7,B   5,B  10)      4.55  0.034395   -2.17      2.38   
   101. D(B   3,B   7,B   0,B   6)     62.26 -0.005641    0.39     62.64   
   102. D(B   3,B   7,B   0,B   5)    112.28  0.019879   -1.27    111.01   
   103. D(B   3,B   7,B   0,B   2)      1.40 -0.006418    0.42      1.82   
   104. D(B   1,B   8,B   2,B   6)    -89.46 -0.013134    0.81    -88.65   
   105. D(B   1,B   8,B   2,B   4)   -129.99  0.001824   -0.11   -130.11   
   106. D(B   1,B   8,B   2,B   0)    -29.55 -0.005483    0.37    -29.17   
   107. D(B   3,B   9,B   4,B   6)    -61.49  0.017573   -1.18    -62.67   
   108. D(B   3,B   9,B   4,B   2)      3.59  0.020815   -1.41      2.18   
   109. D(B   4,B   9,B   3,B   7)     60.47 -0.022193    1.55     62.03   
   110. D(B  11,B  10,B   5,B   7)     41.08 -0.004781    0.30     41.38   
   111. D(B  11,B  10,B   5,B   0)    103.92  0.003918   -0.26    103.66   
   112. D(B   7,B  11,B  10,B   5)    -39.97  0.011320   -0.71    -40.68   
   113. D(B  10,B  11,B   7,B   5)     37.17 -0.008345    0.55     37.72   
   114. D(B  10,B  11,B   7,B   3)   -103.60 -0.001222    0.14   -103.46   
   115. D(B  10,B  11,B   7,B   0)      6.37  0.002051   -0.16      6.22   
    ----------------------------------------------------------------------------

[...]
      dyz     :     0.014375
      dx2y2   :     0.016618
      dxy     :     0.012351

 10 B s       :     2.521543  s :     2.521543
      pz      :     0.844518  p :     2.375318
      px      :     0.798351
      py      :     0.732449
      dz2     :     0.011847  d :     0.073994
      dxz     :     0.015856
      dyz     :     0.016556
      dx2y2   :     0.015770
      dxy     :     0.013965

 11 B s       :     2.841152  s :     2.841152
      pz      :     0.715670  p :     2.119978
      px      :     0.650586
      py      :     0.753722
      dz2     :     0.013948  d :     0.068084
      dxz     :     0.015083
      dyz     :     0.011292
      dx2y2   :     0.012967
      dxy     :     0.014794



                     *******************************
                     * LOEWDIN POPULATION ANALYSIS *
                     *******************************

----------------------
LOEWDIN ATOMIC CHARGES
----------------------
   0 B :    0.036844
   1 B :    0.038191
   2 B :   -0.038606
   3 B :   -0.035852
   4 B :    0.038031
   5 B :   -0.038583
   6 B :   -0.035923
   7 B :    0.037998
   8 B :   -0.038521
   9 B :    0.036806
  10 B :    0.038024
  11 B :   -0.038409

-------------------------------
LOEWDIN REDUCED ORBITAL CHARGES
-------------------------------
  0 B s       :     2.572056  s :     2.572056
      pz      :     0.681778  p :     2.204623
      px      :     0.780720
      py      :     0.742125
      dz2     :     0.038411  d :     0.186476
      dxz     :     0.039101
      dyz     :     0.027739
      dx2y2   :     0.046325
      dxy     :     0.034901

  1 B s       :     2.571446  s :     2.571446
      pz      :     0.782988  p :     2.204050
      px      :     0.745481
      py      :     0.675580
      dz2     :     0.030121  d :     0.186314
      dxz     :     0.045045
      dyz     :     0.044453
      dx2y2   :     0.038682
      dxy     :     0.028014

  2 B s       :     2.667635  s :     2.667635
      pz      :     0.728925  p :     2.198458
      px      :     0.721126
      py      :     0.748407
      dz2     :     0.038244  d :     0.172513
      dxz     :     0.032441
      dyz     :     0.032872
      dx2y2   :     0.028497
      dxy     :     0.040459

  3 B s       :     2.663283  s :     2.663283
      pz      :     0.722640  p :     2.199376
      px      :     0.732780
      py      :     0.743956
      dz2     :     0.039637  d :     0.173194
      dxz     :     0.038419
      dyz     :     0.028152
      dx2y2   :     0.036482
      dxy     :     0.030503

  4 B s       :     2.571116  s :     2.571116
      pz      :     0.783732  p :     2.204274
      px      :     0.745856
      py      :     0.674686
      dz2     :     0.029978  d :     0.186579
      dxz     :     0.045367
      dyz     :     0.044517
      dx2y2   :     0.038596
      dxy     :     0.028120

  5 B s       :     2.667166  s :     2.667166
      pz      :     0.729474  p :     2.198744
      px      :     0.720926
      py      :     0.748343
      dz2     :     0.038138  d :     0.172673
      dxz     :     0.032745
      dyz     :     0.032681
      dx2y2   :     0.028398
      dxy     :     0.040711

  6 B s       :     2.663353  s :     2.663353
      pz      :     0.722705  p :     2.199395
      px      :     0.732580
      py      :     0.744110
      dz2     :     0.039659  d :     0.173175
      dxz     :     0.038376
      dyz     :     0.028145
      dx2y2   :     0.036479
      dxy     :     0.030516

  7 B s       :     2.571406  s :     2.571406
      pz      :     0.783218  p :     2.204283
      px      :     0.745614
      py      :     0.675451
      dz2     :     0.029890  d :     0.186314
      dxz     :     0.045264
      dyz     :     0.044489
      dx2y2   :     0.038565
      dxy     :     0.028104

  8 B s       :     2.666902  s :     2.666902
      pz      :     0.729214  p :     2.198868
      px      :     0.720508
      py      :     0.749146
      dz2     :     0.038130  d :     0.172751
      dxz     :     0.032749
      dyz     :     0.032729
      dx2y2   :     0.028393
      dxy     :     0.040751

  9 B s       :     2.572281  s :     2.572281
      pz      :     0.682518  p :     2.204639
      px      :     0.779790
      py      :     0.742330
      dz2     :     0.038460  d :     0.186274
      dxz     :     0.039099
      dyz     :     0.027703
      dx2y2   :     0.046222
      dxy     :     0.034790

 10 B s       :     2.571148  s :     2.571148
      pz      :     0.783613  p :     2.204329
      px      :     0.745305
      py      :     0.675411
      dz2     :     0.030171  d :     0.186498
      dxz     :     0.045079
      dyz     :     0.044505
      dx2y2   :     0.038706
      dxy     :     0.028037

 11 B s       :     2.666691  s :     2.666691
      pz      :     0.729350  p :     2.198962
      px      :     0.720428
      py      :     0.749184
      dz2     :     0.038286  d :     0.172757
      dxz     :     0.032475
      dyz     :     0.032958
      dx2y2   :     0.028511
      dxy     :     0.040526



                      *****************************
                      * MAYER POPULATION ANALYSIS *
                      *****************************

  NA   - Mulliken gross atomic population
  ZA   - Total nuclear charge
  QA   - Mulliken gross atomic charge
  VA   - Mayer's total valence
  BVA  - Mayer's bonded valence
  FA   - Mayer's free valence

  ATOM       NA         ZA         QA         VA         BVA        FA
  0 B      4.9691     5.0000     0.0309     4.3261     4.3261     0.0000
  1 B      4.9719     5.0000     0.0281     4.3386     4.3386     0.0000
  2 B      5.0318     5.0000    -0.0318     3.7609     3.7609    -0.0000
  3 B      5.0261     5.0000    -0.0261     3.7810     3.7810    -0.0000
  4 B      4.9699     5.0000     0.0301     4.3357     4.3357     0.0000
  5 B      5.0303     5.0000    -0.0303     3.7598     3.7598    -0.0000
  6 B      5.0279     5.0000    -0.0279     3.7839     3.7839     0.0000
  7 B      4.9722     5.0000     0.0278     4.3393     4.3393     0.0000
  8 B      5.0294     5.0000    -0.0294     3.7596     3.7596     0.0000
  9 B      4.9715     5.0000     0.0285     4.3313     4.3313     0.0000
 10 B      4.9709     5.0000     0.0291     4.3378     4.3378     0.0000
 11 B      5.0292     5.0000    -0.0292     3.7597     3.7597     0.0000

  Mayer bond orders larger than 0.100000
B(  0-B ,  1-B ) :   0.7080 B(  0-B ,  2-B ) :   0.5419 B(  0-B ,  3-B ) :   0.1768 
B(  0-B ,  4-B ) :   0.1454 B(  0-B ,  5-B ) :   0.5419 B(  0-B ,  6-B ) :   0.8486 
B(  0-B ,  7-B ) :   0.7083 B(  0-B ,  8-B ) :   0.1598 B(  0-B ,  9-B ) :   0.1891 
B(  0-B , 10-B ) :   0.1459 B(  0-B , 11-B ) :   0.1603 B(  1-B ,  2-B ) :   0.5555 
B(  1-B ,  3-B ) :   0.5580 B(  1-B ,  4-B ) :   0.1448 B(  1-B ,  5-B ) :   0.1764 
B(  1-B ,  6-B ) :   0.1604 B(  1-B ,  7-B ) :   0.7039 B(  1-B ,  8-B ) :   0.8363 
B(  1-B ,  9-B ) :   0.1462 B(  1-B , 10-B ) :   0.1892 B(  1-B , 11-B ) :   0.1602 
B(  2-B ,  3-B ) :   0.2596 B(  2-B ,  4-B ) :   0.8343 B(  2-B ,  5-B ) :   0.2653 
B(  2-B ,  6-B ) :   0.2468 B(  2-B ,  7-B ) :   0.1762 B(  2-B ,  8-B ) :   0.2430 
B(  2-B ,  9-B ) :   0.1615 B(  2-B , 10-B ) :   0.1601 B(  2-B , 11-B ) :   0.3167 
B(  3-B ,  4-B ) :   0.1603 B(  3-B ,  5-B ) :   0.2596 B(  3-B ,  6-B ) :   0.3061 
B(  3-B ,  7-B ) :   0.5581 B(  3-B ,  8-B ) :   0.2465 B(  3-B ,  9-B ) :   0.8491 
B(  3-B , 10-B ) :   0.1604 B(  3-B , 11-B ) :   0.2465 B(  4-B ,  5-B ) :   0.1597 
B(  4-B ,  6-B ) :   0.5578 B(  4-B ,  7-B ) :   0.1892 B(  4-B ,  8-B ) :   0.5563 
B(  4-B ,  9-B ) :   0.7082 B(  4-B , 10-B ) :   0.7037 B(  4-B , 11-B ) :   0.1761 
B(  5-B ,  6-B ) :   0.2469 B(  5-B ,  7-B ) :   0.5552 B(  5-B ,  8-B ) :   0.3166 
B(  5-B ,  9-B ) :   0.1613 B(  5-B , 10-B ) :   0.8338 B(  5-B , 11-B ) :   0.2431 
B(  6-B ,  7-B ) :   0.1611 B(  6-B ,  8-B ) :   0.2596 B(  6-B ,  9-B ) :   0.1786 
B(  6-B , 10-B ) :   0.5585 B(  6-B , 11-B ) :   0.2596 B(  7-B ,  8-B ) :   0.1603 
B(  7-B ,  9-B ) :   0.1462 B(  7-B , 10-B ) :   0.1452 B(  7-B , 11-B ) :   0.8358 
B(  8-B ,  9-B ) :   0.5417 B(  8-B , 10-B ) :   0.1763 B(  8-B , 11-B ) :   0.2631 
B(  9-B , 10-B ) :   0.7079 B(  9-B , 11-B ) :   0.5415 B( 10-B , 11-B ) :   0.5568 


-------
TIMINGS
-------

Total SCF time: 0 days 0 hours 0 min 5 sec 

Total time                  ....       5.454 sec
Sum of individual times     ....       5.069 sec  ( 93.0%)

SCF preparation             ....       0.573 sec  ( 10.5%)
Fock matrix formation       ....       3.815 sec  ( 70.0%)
  Startup                   ....       0.030 sec  (  0.8% of F)
  Split-RI-J                ....       1.077 sec  ( 28.2% of F)
  XC integration            ....       2.698 sec  ( 70.7% of F)
    XC Preparation          ....       0.000 sec  (  0.0% of XC)
    Basis function eval.    ....       0.547 sec  ( 20.3% of XC)
    Density eval.           ....       0.483 sec  ( 17.9% of XC)
    XC-Functional eval.     ....       0.054 sec  (  2.0% of XC)
    XC-Potential eval.      ....       0.556 sec  ( 20.6% of XC)
Diagonalization             ....       0.000 sec  (  0.0%)
Density matrix formation    ....       0.072 sec  (  1.3%)
Total Energy calculation    ....       0.051 sec  (  0.9%)
Population analysis         ....       0.092 sec  (  1.7%)
Orbital Transformation      ....       0.016 sec  (  0.3%)
Orbital Orthonormalization  ....       0.000 sec  (  0.0%)
DIIS solution               ....       0.117 sec  (  2.1%)
SOSCF solution              ....       0.332 sec  (  6.1%)
Finished LeanSCF after   5.5 sec

Maximum memory used throughout the entire LEANSCF-calculation: 11.2 MB


-------------------------------------------------------------------------------
                          DFT DISPERSION CORRECTION                            
                                                                               
                              DFTD3 V3.1  Rev 1                                
                          USING Becke-Johnson damping                          
-------------------------------------------------------------------------------
The BP86 functional is recognized
Active option DFTDOPT                   ...         4   

molecular C6(AA) [au] = 4036.536167 


            DFT-D V3
 parameters
 s6 scaling factor         :     1.0000 
 a1 scaling factor         :     0.3946 
 s8 scaling factor         :     3.2822 
 a2 scaling factor         :     4.8516 
 ad hoc parameters k1-k3   :    16.0000     1.3333    -4.0000 

 Edisp/kcal,au: -23.925269810908  -0.038127340300 
 E6   /kcal   :  -6.812728166 
 E8   /kcal   : -17.112541645 
 % E8         :  71.524968287 

-------------------------   ----------------
Dispersion correction           -0.038127340
-------------------------   ----------------


-------------------------   --------------------
FINAL SINGLE POINT ENERGY      -297.634950183124
-------------------------   --------------------

                                *** OPTIMIZATION RUN DONE ***



           ************************************************************
           *        Program running with 8 parallel MPI-processes     *
           *              working on a common directory               *
           ************************************************************

------------------------------------------------------------------------------
                              ORCA PROPERTY CALCULATIONS
------------------------------------------------------------------------------

GBWName                                 ... icosahedron_nn2.00_perturb1.gbw
Number of atoms                         ...     12
Number of basis functions               ...    168
Max core memory                         ...   2500 MB

Electric properties:
Dipole moment                           ... YES
Quadrupole moment                       ...  NO
Static polarizability (Dipole/Dipole)   ...  NO
Static polarizability (Dipole/Quad.)    ...  NO
Static polarizability (Quad./Quad.)     ...  NO
Static polarizability (Velocity)        ...  NO
Static hyperpolarizability              ...  NO

Atomic electric properties:
Dipole moment                           ...  NO
Quadrupole moment                       ...  NO
Static polarizability                   ...  NO

Choice of electric origin               ... Center of mass
Position of electric origin             ...    -0.032320     0.026208     0.053300

General magnetic properties:
Magnetizability                         ...  NO

EPR properties:
g-Tensor (aka g-matrix)                 ...  NO
Zero-Field splitting spin-orbit         ...  NO
Zero-field splitting spin-spin          ...  NO
Hyperfine couplings                     ...  NO (   0 nuclei)
Quadrupole couplings                    ...  NO (   0 nuclei)
Contact density                         ...  NO (   0 nuclei)

NMR properties:
Chemical shifts                         ...  NO (   0 nuclei)
Spin-rotation constants                 ...  NO (   0 nuclei)
Spin-spin couplings                     ...  NO (   0 nuclei,    0 pairs)

Choice of magnetic origin               ... GIAO
Position of magnetic origin             ...     0.000000     0.000000     0.000000

Properties with geometric perturbations:
SCF Hessian                             ...  NO
IR spectrum                             ...  NO
VCD spectrum                            ...  NO
X-ray spectroscopy properties:
SCF XES/XAS/RIXS spectra                ...  NO

SCF SOC stabilization energy            ...  NO
Diagonal Born-Oppenheimer correction    ...  NO

-------------
DIPOLE MOMENT
-------------

Method             : SCF
Type of density    : Electron Density
Multiplicity       :   1
Irrep              :   0
Energy             :  -297.5968228428247926 Eh
Basis              : AO
                                X                 Y                 Z
Electronic contribution:      0.001743571       0.000647817       0.001354251
Nuclear contribution   :      0.000000000      -0.000000000      -0.000000000
                        -----------------------------------------
Total Dipole Moment    :      0.001743571       0.000647817       0.001354251
                        -----------------------------------------
Magnitude (a.u.)       :      0.002300804
Magnitude (Debye)      :      0.005848180



--------------------
Rotational spectrum 
--------------------
 
Rotational constants in cm-1:             0.074540             0.074395             0.070841 
Rotational constants in MHz :          2234.652879          2230.317806          2123.774690 

Dipole components along the rotational axes: 
x,y,z [a.u.] :     0.001713    -0.001100     0.001073 
x,y,z [Debye]:     0.004353    -0.002795     0.002727 

 

Dipole moment calculation done in   0.1 sec 

Maximum memory used throughout the entire PROP-calculation: 8.8 MB

--------------------------------
SUGGESTED CITATIONS FOR THIS RUN
--------------------------------

Below you find a list of papers that are relevant to this ORCA run
We neither can nor want to force you to cite these papers, but we appreciate if you do
You receive ORCA, which is the product of decades of hard work by many enthusiastic individuals, for free
The only thing we kindly ask in return is that you cite our papers,
We deeply appreciate it, if you show your appreciation for ORCA by not just citing the generic ORCA reference.

Please note that relegating all ORCA citations to the supporting information does *not* help us.
SI sections are not indexed - citations you put there will not count into any citation statistics
But we need these citations in order to attract the funding resources that allow us to do what we are doing

Therefore, if you are a happy ORCA user, please consider citing a few of the papers listed below in the main body of your paper

In addition to the list printed below, the program has created the file icosahedron_nn2.00_perturb1.bibtex that contains the list in bibtex format
You can import this file easily into all common literature databanks and citation aid programs

It goes without saying that in many instances, there are alternative algorithms to achieve similar
results as the ones you have gotten from ORCA. It is, of course, also the case that in some instances
ORCA just re-implements algorithms worked out by others. We are fully aware of that and we are also
fully appreciative of our colleagues work. Hence this citation list should not be read as indicating
that the listed papers, which are focused on our own work, are the only ones worth citing. It simply
meant to make it easier for users to cite ORCA specific papers. It is not a substitute for doing your
own literature research and citing the relevant literature in a scientifically appropriate manner.

List of essential papers. We consider these as the minimum necessary citations

  1. Neese, F.
     Software update: the ORCA program system, version 6.0
     WIRES Comput. Molec. Sci. 2025 15(1), e70019
     doi.org/10.1002/wcms.70019

List of papers to cite with high priority. The work reported in these papers was absolutely
necessary for this run to complete.
Our perspective: the developers of density functionals and basis sets usually get cited in chemistry papers
Good! But without the algorithms to do something with them, the functionals or basis sets would not do anything.
Hence, in our opinion, the algorithm design and method developments papers are equally worthy of getting cited

  1. Neese, F.
     An improvement of the resolution of the identity approximation for the formation of the Coulomb matrix
     J. Comp. Chem. 2003 24(14), 1740-1747
     doi.org/10.1002/jcc.10318
  2. Grimme, S.; Antony, J.; Ehrlich, S.; Krieg, H.
     A consistent and accurate ab initio parametrization of density functional dispersion correction (DFT-D) for the 94 elements H-Pu
     J. Chem. Phys. 2010 132 , 154104
     doi.org/10.1063/1.3382344
  3. Grimme, S.; Ehrlich, S.; Goerigk, L.
     Effect of the damping function in dispersion corrected density functional theory
     J. Comput. Chem. 2011 32(7), 1456-1465
     doi.org/10.1002/jcc.21759
  4. Neese, F.
     The SHARK Integral Generation and Digestion System
     J. Comp. Chem. 2022 44(3), 381
     doi.org/10.1002/jcc.26942

List of suggested additional citations. These are papers that are important in the 'surrounding' of 
of this run, or papers that preceded the highly important papers. If you like your results we are grateful for a citation.

  1. Neese, F.
     The ORCA program system
     WIRES Comput. Molec. Sci. 2012 2(1), 73-78
     doi.org/10.1002/wcms.81
  2. Neese, F.
     Software update: the ORCA program system, version 4.0
     WIRES Comput. Molec. Sci. 2018 8(1), 1-6
     doi.org/10.1002/wcms.1327
  3. Neese, F.; Wennmohs, F.; Becker, U.; Riplinger, C.
     The ORCA quantum chemistry program package
     J. Chem. Phys. 2020 152(22), 224108
     doi.org/10.1063/5.0004608
  4. Neese, F.
     Software update: The ORCA program system—Version 5.0
     WIRES Comput. Molec. Sci. 2022 12(1), e1606
     doi.org/10.1002/wcms.1606

List of optional additional citations

  1. Neese, F.
     Approximate second-order SCF convergence for spin unrestricted wavefunctions
     Chem. Phys. Lett. 2000 325(1-3), 93-98
     doi.org/10.1016/s0009-2614(00)00662-x

Timings for individual modules:

Sum of individual times          ...      409.742 sec (=   6.829 min)
Startup calculation              ...       41.552 sec (=   0.693 min)  10.1 %
SCF iterations                   ...      312.414 sec (=   5.207 min)  76.2 %
Property calculations            ...        0.981 sec (=   0.016 min)   0.2 %
SCF Gradient evaluation          ...       54.635 sec (=   0.911 min)  13.3 %
Geometry relaxation              ...        0.159 sec (=   0.003 min)   0.0 %
                             ****ORCA TERMINATED NORMALLY****
TOTAL RUN TIME: 0 days 0 hours 7 minutes 8 seconds 289 msec
