
                                 *****************
                                 * O   R   C   A *
                                 *****************

                                            #,                                       
                                            ###                                      
                                            ####                                     
                                            #####                                    
                                            ######                                   
                                           ########,                                 
                                     ,,################,,,,,                         
                               ,,#################################,,                 
                          ,,##########################################,,             
                       ,#########################################, ''#####,          
                    ,#############################################,,   '####,        
                  ,##################################################,,,,####,       
                ,###########''''           ''''###############################       
              ,#####''   ,,,,##########,,,,          '''####'''          '####       
            ,##' ,,,,###########################,,,                        '##       
           ' ,,###''''                  '''############,,,                           
         ,,##''                                '''############,,,,        ,,,,,,###''
      ,#''                                            '''#######################'''  
     '                                                          ''''####''''         
             ,#######,   #######,   ,#######,      ##                                
            ,#'     '#,  ##    ##  ,#'     '#,    #''#        ,####,    ,#,          
            ##       ##  ##   ,#'  ##            #'  '#       #'       ,# #          
            ##       ##  #######   ##           ,######,      #####,      #          
            '#,     ,#'  ##    ##  '#,     ,#' ,#      #,     #,   #      #          
             '#######'   ##     ##  '#######'  #'      '#     '####' #    #          



                #########################################################
                #                        -***-                          #
                #          Department of theory and spectroscopy        #
                #                                                       #
                #                      Frank Neese                      #
                #                                                       #
                #     Directorship, Architecture, Infrastructure        #
                #                    SHARK, DRIVERS                     #
                #        Core code/Algorithms in most modules           #
                #                                                       #
                #        Max Planck Institute fuer Kohlenforschung      #
                #                Kaiser Wilhelm Platz 1                 #
                #                 D-45470 Muelheim/Ruhr                 #
                #                      Germany                          #
                #                                                       #
                #                  All rights reserved                  #
                #                        -***-                          #
                #########################################################


                         Program Version 6.1.1  -  RELEASE   -
                                (GIT: $487d211c$)
                          ($2025-11-21 10:33:24 +0100$)
                                                                         
                                  - NO-DMRG VERSION -                    
                                                                         


 With contributions from (in alphabetic order):
[Max-Planck-Institut fuer Kohlenforschung]                               
  Daniel Aravena         : Magnetic Suceptibility                        
  Michael Atanasov       : Ab Initio Ligand Field Theory (pilot matlab implementation)
  Alexander A. Auer      : GIAO ZORA, VPT2 properties, NMR spectrum      
  Ute Becker             : All parallelization in ORCA, NUMFREQ, NUMCALC 
  Giovanni Bistoni       : ED, misc. LED, open-shell LED, HFLD           
  Dmytro Bykov           : pre 5.0 version of the SCF Hessian            
  Marcos Casanova-Páez   : Triplet and SCS-CIS(D). UHF-(DLPNO)-IP/EA/STEOM-CCSD. UHF-CVS-IP/STEOM-CCSD   
  Vijay G. Chilkuri      : MRCI spin determinant printing, contributions to CSF-ICE 
  Pauline Colinet        : FMM embedding                                 
  Dipayan Datta          : RHF DLPNO-CCSD density                        
  Achintya Kumar Dutta   : EOM-CC, STEOM-CC                              
  Nicolas Foglia         : Exact transition moments, OPA infrastructure, MCD improvements    
  Dmitry Ganyushin       : Spin-Orbit,Spin-Spin,Magnetic field MRCI      
  Miquel Garcia-Rates    : C-PCM and meta-GGA Hessian, CCSD/C-PCM, Gaussian charge scheme 
  Tiago L. C. Gouveia    : GS-ROHF, GS-ROCIS                             
  Yang Guo               : DLPNO-NEVPT2, F12-NEVPT2, CIM, IAO-localization        
  Andreas Hansen         : Spin unrestricted coupled pair/coupled cluster methods 
  Ingolf Harden          : AUTO-CI MPn and infrastructure                
  Benjamin Helmich-Paris : MC-RPA, TRAH-(SCF,CASSCF), AVAS, COSX integrals, SCF dyn. polar., MC-PDFT, srDFT 
  Lee Huntington         : MR-EOM, pCC                                   
  Robert Izsak           : Overlap fitted RIJCOSX, COSX-SCS-MP3, EOM     
  Riya Kayal             : Wick's Theorem for AUTO-CI, AUTO-CI UHF-CCSDT 
  Emily Kempfer          : AUTO-CI RHF CISDT and CCSDT, approximate NEVPT4
  Christian Kollmar      : KDIIS, OOCD, Brueckner-CCSD(T), CCSD density, CASPT2, CASPT2-K, improved NEVPT2 
  Axel Koslowski         : Symmetry handling                             
  Simone Kossmann        : meta-GGA functionals, TD-DFT gradient, OOMP2, (MP2 Hessian; deprecated post 5.0) 
  Lucas Lang             : DCDCAS, Hyperfine gauge corrections, ICE-SOC+SSC
  Marvin Lechner         : AUTO-CI (C++ implementation), FIC-MRCC        
  Spencer Leger          : CASSCF response                               
  Dagmar Lenk            : GEPOL surface, SMD, ORCA-2-JSON               
  Dimitrios Liakos       : Extrapolation schemes; Compound Job, Property file
  Dimitrios Manganas     : Further ROCIS development; embedding schemes. LFT, Crystal Embedding 
  Dimitrios Pantazis     : SARC Basis sets                               
  Anastasios Papadopoulos: AUTO-CI, single reference methods and gradients 
  Taras Petrenko         : pre 6.0 DFT Hessian and TD-DFT gradient,  ECA, NRVS 
  Petra Pikulova         : Analytic Raman intensities                    
  Peter Pinski           : DLPNO-MP2, DLPNO-MP2 Gradient                 
  Shashank Vittal Rao    : ES-AILFT, MagRelax                            
  Christoph Reimann      : Effective Core Potentials                     
  Marius Retegan         : Local ZFS, SOC                                
  Christoph Riplinger    : Optimizer, TS searches, QM/MM, DLPNO-CCSD(T), (RO)-DLPNO pert. Triples 
  Michael Roemelt        : Original ROCIS implementation, recursive CI coupling coefficients
  Masaaki Saitow         : Open-shell DLPNO-CCSD energy and density      
  Barbara Sandhoefer     : DKH picture change effects                    
  Yorick L. A. Schmerwitz: GMF and freeze-and-release deltaSCF, NEB S-IDPP initial path                    
  Kantharuban Sivalingam : CASSCF convergence/infrastructure, NEVPT2, NEVPT3, NEVPT4(SD), FIC-MRCI and CEPA variants
  Bernardo de Souza      : ESD, SOC TD-DFT                               
  Georgi L. Stoychev     : AutoAux, RI-MP2 NMR, DLPNO-MP2 response, X2C  
  Van Anh Tran           : RI-MP2 g-tensors                              
  Willem Van den Heuvel  : Paramagnetic NMR                              
  Zikuan Wang            : NOTCH, Electric field optimization            
  Frank Wennmohs         : Technical directorship and infrastructure     
  Hang Xu                : AUTO-CI-Response properties                   
                                                                         
[FACCTs GmbH]                                                            
  Markus Bursch, Nicolas Foglia, Miquel Garcia-Rates, Ingolf Harden, Hagen Neugebauer, Anastasios Papadopoulos, 
  Christoph Riplinger, Bernardo de Souza, Georgi L. Stoychev                                                    
                                                                 
  APM, various basis sets, CI-OPT, improved COSX, DLPNO-Multilevel,           
  DOCKER, DRACO, updates on ESD, Fragmentator, GOAT, IRC, LR-CPCM, L-BFGS, MBIS, meta-GGA TD-DFT gradient, ML-optimized integration grids, 
  MM, NACMEs, nearIR, NEB, NEB-TS, NL-DFT gradient (VV10), 2- and 3-layer-ONIOM, interface openCOSMO-RS, QMMM,   
  Crystal-QMMM, RESP, rigid body optimization, SF, symmetry and pop. for TD-DFT, various functionals, SOLVATOR                                   
                                                                         
[Other institutions]                                                     
  V. Asgeirsson          : NEB                                           
  Christoph Bannwarth    : sTDA-DFT, sTD-DFT, PBEh-3c, B97-3c, D3        
  Giovanni Bistoni       : ETS/NOCV, ADLD/ADEX, COVALED                  
  Martin Brehm           : Molecular dynamics                            
  Ronald Cardenas        : ETS/NOCV                                      
  Martina Colucci        : COVALED                                       
  Sebastian Ehlert       : rSCAN, r2SCAN, r2SCAN-3c, D4, dhf basis sets  
  Marvin Friede          : D4 for Fr, Ra, Ac-Lr                          
  Lars Goerigk           : TD-DFT with DH, B97 family of functionals     
  Stefan Grimme          : VdW corrections, initial TS optimization, DFT functionals, gCP, sTDA/sTD-DF 
  Waldemar Hujo          : DFT-NL                                        
  H. Jonsson             : NEB                                           
  Holger Kruse           : gCP                                           
  Marcel Mueller         : wB97X-3c, vDZP basis set                      
  Hagen Neugebauer       : wr2SCAN, Native XTB                           
  Gianluca Regni         : ADLD/ADEX                                     
  Tobias Risthaus        : pre 6.0 range-separated hybrid DFT and stability analysis
  Lukas Wittmann         : regularized MP2, r2SCAN double-hybrids, wr2SCAN        
                                                                         
We gratefully acknowledge several colleagues who have allowed us to      
interface, adapt or use parts of their codes:                            
  Ed Valeev, F. Pavosevic, A. Kumar             : LibInt (2-el integral package), F12 methods 
  Garnet Chan, S. Sharma, J. Yang, R. Olivares  : DMRG                   
  Ulf Ekstrom                                   : XCFun DFT Library      
  Mihaly Kallay                                 : mrcc  (arbitrary order and MRCC methods)
  Frank Weinhold                                : gennbo (NPA and NBO analysis)           
  Simon Mueller                                 : openCOSMO-RS                            
  Christopher J. Cramer and Donald G. Truhlar   : smd solvation model                     
  S Lehtola, MJT Oliveira, MAL Marques          : LibXC Library                           
  Liviu Ungur et al                             : ANISO software                          


 Your calculation uses the libint2 library for the computation of 2-el integrals
 For citations please refer to: http://libint.valeyev.net

 Your ORCA version has been built with support for libXC version: 7.0.0
 For citations please refer to: https://libxc.gitlab.io

 This ORCA versions uses:
   CBLAS   interface :  Fast vector & matrix operations
   LAPACKE interface :  Fast linear algebra routines
   SCALAPACK package :  Parallel linear algebra routines
   Shared memory     :  Shared parallel matrices
   BLAS/LAPACK       :  OpenBLAS 0.3.29  USE64BITINT DYNAMIC_ARCH NO_AFFINITY Zen SINGLE_THREADED
        Core in use  :  Zen
   Copyright (c) 2011-2014, The OpenBLAS Project


  ***********************************
  * Starting time: Fri Apr 24 02:35:27 2026
  * Host name:     vmi3233575
  * Process ID:    1635319
  * Working dir.:  /root/b12_scan/jobs/random3_nn2.00
  ***********************************

NOTE: MaxCore=2500 MB was set to SCF,MP2,MDCI,CIPSI,MRCI,RASCI and CIS
      => If you want to overwrite this, your respective input block should be placed after the MaxCore statement
Your calculation utilizes the atom-pairwise dispersion correction
with the Becke-Johnson damping scheme (D3BJ)


================================================================================

----- Orbital basis set information -----
Your calculation utilizes the basis: def2-SVP
   F. Weigend and R. Ahlrichs, Phys. Chem. Chem. Phys. 7, 3297 (2005).

----- AuxJ basis set information -----
Your calculation utilizes the auxiliary basis: def2/J
   H-Rn: F. Weigend, Phys. Chem. Chem. Phys. 8, 1057 (2006).
   Fr-Lr: K. Eichkorn, F. Weigend, O. Treutler, R. Ahlrichs; Theor. Chem. Acc. 97, 119 (1997).

================================================================================
                                        WARNINGS
                       Please study these warnings very carefully!
================================================================================


WARNING: Geometry Optimization
  ===> : Switching off AutoStart
         For restart on a previous wavefunction, please use MOREAD

================================================================================
                                       INPUT FILE
================================================================================
NAME = random3_nn2.00.inp
|  1> ! BP86 def2-SVP def2/J RI Opt TightSCF D3BJ
|  2> ! SlowConv
|  3> 
|  4> %pal nprocs 8 end
|  5> %maxcore 2500
|  6> 
|  7> %geom
|  8>   MaxIter 300
|  9> end
| 10> 
| 11> * xyz 0 1
| 12> B      0.67722717     -2.86525027     -0.67598657
| 13> B     -0.04927154     -2.40297273      1.44797445
| 14> B     -2.62366464     -0.77194320     -0.08686352
| 15> B     -0.39045277      0.60600862      1.47094827
| 16> B      2.85825096      0.59448427     -0.40695833
| 17> B     -1.88354873      2.31876270      0.90597590
| 18> B      1.38629548      2.24963538     -0.70807345
| 19> B     -2.39353050      1.39251674     -1.67049090
| 20> B      2.71330511     -1.58822719      0.23068788
| 21> B     -0.60867419      0.78998121     -2.34223406
| 22> B      0.96984455      0.74752525      3.11065613
| 23> B     -0.65578091     -1.07052078     -1.27563580
| 24> *
| 25> 
| 26>                          ****END OF INPUT****
================================================================================

                       *****************************
                       * Geometry Optimization Run *
                       *****************************

Geometry optimization settings:
Update method            Update   .... BFGS
Choice of coordinates    CoordSys .... (2022) Redundant Internals
Initial Hessian          InHess   .... Almloef's Model
Max. no of cycles        MaxIter  .... 300

Convergence Tolerances:
Energy Change            TolE     ....  5.0000e-06 Eh
Max. Gradient            TolMAXG  ....  3.0000e-04 Eh/bohr
RMS Gradient             TolRMSG  ....  1.0000e-04 Eh/bohr
Max. Displacement        TolMAXD  ....  4.0000e-03 bohr
RMS Displacement         TolRMSD  ....  2.0000e-03 bohr
Strict Convergence                .... False

------------------------------------------------------------------------------
                        ORCA OPTIMIZATION COORDINATE SETUP
------------------------------------------------------------------------------

The optimization will be done in redundant internal coordinates (2022)
Making redundant internal coordinates   ...  (2022 redundants) done
Evaluating the initial hessian          ...  (Almloef) done
Evaluating the coordinates              ...  done
Calculating the B-matrix                .... done
Calculating the G-matrix                .... done
The number of degrees of freedom        ....   81

    -----------------------------------------------------------------
                    Redundant Internal Coordinates


    -----------------------------------------------------------------
         Definition                    Initial Value    Approx d2E/dq
    -----------------------------------------------------------------
      1. B(B   1,B   0)                  2.2919         0.030513   
      2. B(B   3,B   1)                  3.0283         0.010000   
      3. B(B   5,B   3)                  2.3414         0.025440   
      4. B(B   5,B   2)                  3.3296         0.010000   
      5. B(B   6,B   4)                  2.2354         0.037554   
      6. B(B   7,B   2)                  2.6918         0.010000   
      7. B(B   7,B   5)                  2.7850         0.010000   
      8. B(B   8,B   0)                  2.5687         0.011035   
      9. B(B   8,B   4)                  2.2786         0.032043   
     10. B(B   8,B   1)                  3.1269         0.010000   
     11. B(B   9,B   7)                  2.0000         0.089157   
     12. B(B  10,B   3)                  2.1352         0.054257   
     13. B(B  11,B   0)                  2.3146         0.028066   
     14. B(B  11,B   2)                  2.3184         0.027682   
     15. B(B  11,B   9)                  2.1451         0.052325   
     16. A(B   1,B   0,B  11)           84.3262         0.179386   
     17. A(B   1,B   0,B   8)           79.8561         0.162171   
     18. A(B   8,B   0,B  11)           99.3492         0.160800   
     19. A(B   0,B   1,B   3)          104.0729         0.138932   
     20. A(B   0,B   1,B   8)           53.9653         0.135004   
     21. A(B   3,B   1,B   8)           81.0017         0.113937   
     22. A(B   7,B   2,B  11)           74.2954         0.153616   
     23. A(B   5,B   2,B   7)           53.8439         0.116874   
     24. A(B   5,B   2,B  11)           94.8051         0.127022   
     25. A(B   5,B   3,B  10)          122.8940         0.189699   
     26. A(B   1,B   3,B   5)          142.8304         0.136918   
     27. A(B   1,B   3,B  10)           89.9945         0.145879   
     28. A(B   6,B   4,B   8)          134.8377         0.186620   
     29. A(B   2,B   5,B   3)           62.2682         0.126302   
     30. A(B   3,B   5,B   7)           95.5500         0.147665   
     31. A(B   2,B   5,B   7)           51.2963         0.114795   
     32. A(B   5,B   7,B   9)          104.3297         0.166921   
     33. A(B   2,B   7,B   9)           91.8136         0.173199   
     34. A(B   2,B   7,B   5)           74.8598         0.132837   
     35. A(B   1,B   8,B   4)          114.5033         0.135516   
     36. A(B   0,B   8,B   4)          115.3326         0.162986   
     37. A(B   0,B   8,B   1)           46.1786         0.125544   
     38. A(B   7,B   9,B  11)           94.2838         0.221658   
     39. A(B   0,B  11,B   9)          142.0633         0.191121   
     40. A(B   2,B  11,B   9)           99.3171         0.190804   
     41. A(B   0,B  11,B   2)          117.1201         0.177416   
     42. D(B   3,B   1,B   0,B   8)     67.5574         0.010000   
     43. D(B   8,B   1,B   0,B  11)   -100.5806         0.010000   
     44. D(B   3,B   1,B   0,B  11)    -33.0232         0.010000   
     45. D(B  10,B   3,B   1,B   8)    -73.4598         0.010000   
     46. D(B   5,B   3,B   1,B   8)    132.5443         0.010000   
     47. D(B   5,B   3,B   1,B   0)     83.3676         0.010000   
     48. D(B  10,B   3,B   1,B   0)   -122.6365         0.010000   
     49. D(B   2,B   5,B   3,B  10)   -157.1389         0.010000   
     50. D(B   7,B   5,B   3,B  10)    162.4002         0.010000   
     51. D(B   7,B   5,B   3,B   1)    -49.0763         0.010000   
     52. D(B   3,B   5,B   2,B  11)    -57.5862         0.010000   
     53. D(B   3,B   5,B   2,B   7)   -124.1424         0.010000   
     54. D(B   2,B   5,B   3,B   1)     -8.6154         0.010000   
     55. D(B   7,B   5,B   2,B  11)     66.5562         0.010000   
     56. D(B   9,B   7,B   2,B  11)     -3.8970         0.010000   
     57. D(B   2,B   7,B   5,B   3)     47.3942         0.010000   
     58. D(B   9,B   7,B   5,B   3)    -40.5841         0.010000   
     59. D(B   9,B   7,B   5,B   2)    -87.9783         0.010000   
     60. D(B   5,B   7,B   2,B  11)   -108.2539         0.010000   
     61. D(B   9,B   7,B   2,B   5)    104.3569         0.010000   
     62. D(B   1,B   8,B   4,B   6)    -12.9491         0.010000   
     63. D(B   4,B   8,B   1,B   3)    -12.4365         0.010000   
     64. D(B   4,B   8,B   1,B   0)    102.3749         0.010000   
     65. D(B   0,B   8,B   1,B   3)   -114.8114         0.010000   
     66. D(B   4,B   8,B   0,B  11)    -18.0093         0.010000   
     67. D(B   0,B   8,B   4,B   6)     38.2855         0.010000   
     68. D(B   4,B   8,B   0,B   1)   -100.4679         0.010000   
     69. D(B   1,B   8,B   0,B  11)     82.4586         0.010000   
     70. D(B  11,B   9,B   7,B   5)     78.9004         0.010000   
     71. D(B  11,B   9,B   7,B   2)      4.0663         0.010000   
     72. D(B   9,B  11,B   0,B   1)    127.3072         0.010000   
     73. D(B   2,B  11,B   9,B   7)     -4.7835         0.010000   
     74. D(B   9,B  11,B   2,B   5)    -46.6279         0.010000   
     75. D(B   9,B  11,B   2,B   7)      3.6799         0.010000   
     76. D(B   0,B  11,B   2,B   5)    122.4818         0.010000   
     77. D(B   0,B  11,B   2,B   7)    172.7895         0.010000   
     78. D(B   2,B  11,B   0,B   8)   -113.7524         0.010000   
     79. D(B   0,B  11,B   9,B   7)   -168.9096         0.010000   
     80. D(B   2,B  11,B   0,B   1)    -35.0396         0.010000   
     81. D(B   9,B  11,B   0,B   8)     48.5944         0.010000   
    -----------------------------------------------------------------

Number of atoms                         .... 12
Number of degrees of freedom            .... 81


         *************************************************************
         *                GEOMETRY OPTIMIZATION CYCLE   1            *
         *************************************************************
---------------------------------
CARTESIAN COORDINATES (ANGSTROEM)
---------------------------------
  B      0.677227   -2.865250   -0.675987
  B     -0.049272   -2.402973    1.447974
  B     -2.623665   -0.771943   -0.086864
  B     -0.390453    0.606009    1.470948
  B      2.858251    0.594484   -0.406958
  B     -1.883549    2.318763    0.905976
  B      1.386295    2.249635   -0.708073
  B     -2.393530    1.392517   -1.670491
  B      2.713305   -1.588227    0.230688
  B     -0.608674    0.789981   -2.342234
  B      0.969845    0.747525    3.110656
  B     -0.655781   -1.070521   -1.275636

----------------------------
CARTESIAN COORDINATES (A.U.)
----------------------------
  NO LB      ZA    FRAG     MASS         X           Y           Z
   0 B     5.0000    0    10.810    1.279774   -5.414538   -1.277429
   1 B     5.0000    0    10.810   -0.093110   -4.540960    2.736275
   2 B     5.0000    0    10.810   -4.958008   -1.458761   -0.164148
   3 B     5.0000    0    10.810   -0.737849    1.145190    2.779689
   4 B     5.0000    0    10.810    5.401312    1.123412   -0.769040
   5 B     5.0000    0    10.810   -3.559391    4.381826    1.712046
   6 B     5.0000    0    10.810    2.619719    4.251195   -1.338065
   7 B     5.0000    0    10.810   -4.523117    2.631475   -3.156770
   8 B     5.0000    0    10.810    5.127404   -3.001314    0.435937
   9 B     5.0000    0    10.810   -1.150228    1.492848   -4.426181
  10 B     5.0000    0    10.810    1.832741    1.412618    5.878288
  11 B     5.0000    0    10.810   -1.239246   -2.022991   -2.410602

--------------------------------
INTERNAL COORDINATES (ANGSTROEM)
--------------------------------
 B      0   0   0     0.000000000000     0.00000000     0.00000000
 B      1   0   0     2.291879428351     0.00000000     0.00000000
 B      2   1   0     3.412255083550    85.33781160     0.00000000
 B      2   1   3     3.028349582323   104.07285321   306.59024822
 B      4   2   1     3.752431469632    84.00816955   317.69504067
 B      4   2   1     2.341379051582   142.83041759    83.36764110
 B      5   4   2     2.235363157862    59.67187675   151.74625221
 B      3   2   1     2.691788296457   125.76599420   296.64003750
 B      5   4   2     2.278559041626    78.91992131   350.48819442
 B      8   3   2     1.999999996316    91.81363995    32.40407485
 B      4   2   1     2.135199667832    89.99453584   237.36353141
 B     10   8   3     2.145068424573    94.28380466     4.06627549

---------------------------
INTERNAL COORDINATES (A.U.)
---------------------------
 B      0   0   0     0.000000000000     0.00000000     0.00000000
 B      1   0   0     4.331024451552     0.00000000     0.00000000
 B      2   1   0     6.448227606990    85.33781160     0.00000000
 B      2   1   3     5.722751348366   104.07285321   306.59024822
 B      4   2   1     7.091067813912    84.00816955   317.69504067
 B      4   2   1     4.424565183191   142.83041759    83.36764110
 B      5   4   2     4.224224178217    59.67187675   151.74625221
 B      3   2   1     5.086742690799   125.76599420   296.64003750
 B      5   4   2     4.305852568643    78.91992131   350.48819442
 B      8   3   2     3.779452260882    91.81363995    32.40407485
 B      4   2   1     4.034942613443    89.99453584   237.36353141
 B     10   8   3     4.053591860964    94.28380466     4.06627549

---------------------
BASIS SET INFORMATION
---------------------
There are 1 groups of distinct atoms

 Group   1 Type B   : 7s4p1d contracted to 3s2p1d pattern {511/31/1}

Atom   0B    basis set group =>   1
Atom   1B    basis set group =>   1
Atom   2B    basis set group =>   1
Atom   3B    basis set group =>   1
Atom   4B    basis set group =>   1
Atom   5B    basis set group =>   1
Atom   6B    basis set group =>   1
Atom   7B    basis set group =>   1
Atom   8B    basis set group =>   1
Atom   9B    basis set group =>   1
Atom  10B    basis set group =>   1
Atom  11B    basis set group =>   1
---------------------------------
AUXILIARY/J BASIS SET INFORMATION
---------------------------------
There are 1 groups of distinct atoms

 Group   1 Type B   : 12s5p4d2f1g contracted to 6s4p3d1f1g pattern {711111/2111/211/2/1}

Atom   0B    basis set group =>   1
Atom   1B    basis set group =>   1
Atom   2B    basis set group =>   1
Atom   3B    basis set group =>   1
Atom   4B    basis set group =>   1
Atom   5B    basis set group =>   1
Atom   6B    basis set group =>   1
Atom   7B    basis set group =>   1
Atom   8B    basis set group =>   1
Atom   9B    basis set group =>   1
Atom  10B    basis set group =>   1
Atom  11B    basis set group =>   1


           ************************************************************
           *        Program running with 8 parallel MPI-processes     *
           *              working on a common directory               *
           ************************************************************
------------------------------------------------------------------------------
                             ORCA STARTUP CALCULATIONS
                           -- RI-GTO INTEGRALS CHOSEN --
------------------------------------------------------------------------------
------------------------------------------------------------------------------
                   ___                                                        
                  /   \      - P O W E R E D   B Y -                         
                 /     \                                                     
                 |  |  |   _    _      __       _____    __    __             
                 |  |  |  | |  | |    /  \     |  _  \  |  |  /  |          
                  \  \/   | |  | |   /    \    | | | |  |  | /  /          
                 / \  \   | |__| |  /  /\  \   | |_| |  |  |/  /          
                |  |  |   |  __  | /  /__\  \  |    /   |      \           
                |  |  |   | |  | | |   __   |  |    \   |  |\   \          
                \     /   | |  | | |  |  |  |  | |\  \  |  | \   \       
                 \___/    |_|  |_| |__|  |__|  |_| \__\ |__|  \__/        
                                                                              
                      - O R C A' S   B I G   F R I E N D -                    
                                      &                                       
                       - I N T E G R A L  F E E D E R -                       
                                                                              
 v1 FN, 2020, v2 2021, v3 2022-2024                                           
------------------------------------------------------------------------------


----------------------
SHARK INTEGRAL PACKAGE
----------------------

Number of atoms                             ...     12
Number of basis functions                   ...    168
Number of shells                            ...     72
Maximum angular momentum                    ...      2
Integral batch strategy                     ... SHARK/LIBINT Hybrid
RI-J (if used) integral strategy            ... SPLIT-RIJ (Revised 2003 algorithm where possible)
Printlevel                                  ...      1
Contraction scheme used                     ... SEGMENTED contraction
Prescreening option                         ... SCHWARTZ
   Thresh                                   ... 2.500e-11
   Tcut                                     ... 2.500e-12
   Tpresel                                  ... 2.500e-12 
Coulomb Range Separation                    ... NOT USED
Exchange Range Separation                   ... NOT USED
Multipole approximations                    ... NOT USED
Finite Nucleus Model                        ... NOT USED
CABS basis                                  ... NOT available
Auxiliary Coulomb fitting basis             ... AVAILABLE
   # of basis functions in Aux-J            ...    588
   # of shells in Aux-J                     ...    180
   Maximum angular momentum in Aux-J        ...      4
Auxiliary J/K fitting basis                 ... NOT available
Auxiliary Correlation fitting basis         ... NOT available
Auxiliary 'external' fitting basis          ... NOT available

Checking pre-screening integrals            ... done (  0.0 sec) Dimension = 72
   => SHARK Basis and OBASIS are compatible. Storing Pre-screening
Shell pair information
Shell pair cut-off parameter TPreSel        ...   2.5e-12
Total number of shell pairs                 ...      2628
Shell pairs after pre-screening             ...      2486
Total number of primitive shell pairs       ...     10596
Primitive shell pairs kept                  ...      6870
          la=0 lb=0:    597 shell pairs
          la=1 lb=0:    834 shell pairs
          la=1 lb=1:    300 shell pairs
          la=2 lb=0:    390 shell pairs
          la=2 lb=1:    288 shell pairs
          la=2 lb=2:     77 shell pairs

Checking whether 4 symmetric matrices of dimension 168 fit in memory
:Max Core in MB      =   2500.00
 MB in use           =      6.64
 MB left             =   2493.36
 MB needed           =      0.43
 Data fit in memory  = YES
Calculating RI/J V-Matrix + Cholesky decomp.... done (  0.0 sec)
Calculating Nuclear repulsion               ... done (  0.0 sec) ENN=    239.942222910413 Eh

Diagonalization of the overlap matrix:
Smallest eigenvalue                        ... 2.457e-03
Time for diagonalization                   ...    0.007 sec
Threshold for overlap eigenvalues          ... 1.000e-07
Number of eigenvalues below threshold      ... 0
Time for construction of square roots      ...    0.004 sec
Total time needed                          ...    0.015 sec

-------------------
DFT GRID GENERATION
-------------------

General Integration Accuracy     IntAcc      ... 4.388
Radial Grid Type                 RadialGrid  ... OptM3 with GC (2021)
Angular Grid (max. ang.)         AngularGrid ... 4 (Lebedev-302)
Angular grid pruning method      GridPruning ... 4 (adaptive)
Weight generation scheme         WeightScheme... mBecke (2022)
Basis function cutoff            BFCut       ... 1.0000e-11
Integration weight cutoff        WCut        ... 1.0000e-14
Partially contracted basis set               ... off
Rotationally invariant grid construction     ... off
Angular grids for H and He will be reduced by one unit

Total number of grid points                  ...    72569
Total number of batches                      ...     1142
Average number of points per batch           ...       63
Average number of grid points per atom       ...     6047
Grids setup in   1.0 sec
Initializing property integral containers    ... done (  0.0 sec)

SHARK setup successfully completed in   1.3 seconds

Maximum memory used throughout the entire STARTUP-calculation: 19.8 MB


           ************************************************************
           *        Program running with 8 parallel MPI-processes     *
           *              working on a common directory               *
           ************************************************************
-------------------------------------------------------------------------------
                                 ORCA GUESS
                   Start orbitals & Density for SCF / CASSCF
-------------------------------------------------------------------------------

------------
SCF SETTINGS
------------
Hamiltonian:
 Density Functional     Method          .... DFT(GTOs)
 Exchange Functional    Exchange        .... B88
   X-Alpha parameter    XAlpha          ....  0.666667
   Becke's b parameter  XBeta           ....  0.004200
 Correlation Functional Correlation     .... P86
 LDA part of GGA corr.  LDAOpt          .... PW91-LDA
 Gradients option       PostSCFGGA      .... off
   NL short-range parameter             ....  4.400000
 RI-approximation to the Coulomb term is turned on
   Number of AuxJ basis functions       .... 588


General Settings:
 Integral files         IntName         .... random3_nn2.00
 Hartree-Fock type      HFTyp           .... RHF
 Total Charge           Charge          ....    0
 Multiplicity           Mult            ....    1
 Number of Electrons    NEL             ....   60
 Basis Dimension        Dim             ....  168
 Nuclear Repulsion      ENuc            ....    239.9422229104 Eh

Convergence Acceleration:
 AO-DIIS                CNVDIIS         .... on
   Start iteration      DIISMaxIt       ....     0
   Startup error        DIISStart       ....  0.200000
   # of expansion vecs  DIISMaxEq       ....     5
   Bias factor          DIISBfac        ....   1.050
   Max. coefficient     DIISMaxC        ....  10.000
 MO-DIIS                CNVKDIIS        .... off
 Trust-Rad. Augm. Hess. CNVTRAH         .... auto
   Auto Start mean grad. ratio tolernc. ....  1.125000
   Auto Start start iteration           ....    50
   Auto Start num. interpolation iter.  ....    10
   Max. Number of Micro iterations      ....    24
   Max. Number of Macro iterations      .... Maxiter - #DIIS iter
   Number of Davidson start vectors     ....     2
   Converg. threshold    (grad. norm)   ....   1.000e-05
   Grad. Scal. Fac. for Micro threshold ....   0.100
   Minimum threshold for Micro iter.    ....   1.000e-02
   NR start threshold (gradient norm)   ....   1.000e-04
   Initial trust radius                 ....   0.400
   Minimum AH scaling param. (alpha)    ....   1.000
   Maximum AH scaling param. (alpha)    .... 1000.000
   Quad. conv. algorithm                .... NR
   White noise on init. David. guess    .... on
   Maximum white noise                  ....   0.010
   Pseudo random numbers                .... off
   Inactive MOs                         .... canonical
   Orbital update algorithm             .... Taylor
   Preconditioner                       .... Diag
   Full preconditioner red. dimension   ....   250
 SOSCF                 CNVSOSCF           .... on
   Start iteration     SOSCFMaxIt         ....   150
   Startup grad/error  SOSCFStart         ....  0.001000
   Hessian update      SOSCFHessUp        .... L-BFGS
   Autom. constraints  SOSCFAutoConstrain .... off
 Level Shifting         CNVShift        .... on
   Level shift para.    LevelShift      ....    0.2500
   Turn off err/grad.   ShiftErr        ....    0.0000
 Zerner damping         CNVZerner       .... off
 Static damping         CNVDamp         .... on
   Fraction old density DampFac         ....    0.8500
   Max. Damping (<1)    DampMax         ....    0.9800
   Min. Damping (>=0)   DampMin         ....    0.0000
   Turn off err/grad.   DampErr         ....    0.0300

SCF Procedure:
 Maximum # iterations   MaxIter         ....   125
 SCF integral mode      SCFMode         .... Direct
   Integral package                     .... SHARK and LIBINT hybrid scheme
 Reset frequency        DirectResetFreq ....    20
 Integral Threshold     Thresh          ....  2.500e-11 Eh
 Primitive CutOff       TCut            ....  2.500e-12 Eh

Convergence Tolerance:
 Convergence Check Mode ConvCheckMode   .... Total+1el-Energy
 Convergence forced     ConvForced      .... 0
 Energy Change          TolE            ....  1.000e-08 Eh
 1-El. energy change                    ....  1.000e-05 Eh
 Orbital Gradient       TolG            ....  1.000e-05
 Orbital Rotation angle TolX            ....  1.000e-05
 DIIS Error             TolErr          ....  5.000e-07

------------------------------
INITIAL GUESS: MODEL POTENTIAL
------------------------------
Loading Hartree-Fock densities                     ... done
Calculating cut-offs                               ... done
Initializing the effective Hamiltonian             ... done
Setting up the integral package (SHARK)            ... done
Starting the Coulomb interaction                   ... done (   0.0 sec)
Making the grid                                    ... done (   0.2 sec)
Mapping shells                                     ... done
Starting the XC term evaluation                    ... done (   0.0 sec)
  promolecular density results
     # of electrons  =     60.000161104
     EX              =    -44.491004796
     EC              =     -1.752474508
     EX+EC           =    -46.243479304
Transforming the Hamiltonian                       ... done (   0.0 sec)
Diagonalizing the Hamiltonian                      ... done (   0.0 sec)
Back transforming the eigenvectors                 ... done (   0.0 sec)
Now organizing SCF variables                       ... done
                      ------------------
                      INITIAL GUESS DONE (   0.3 sec)
                      ------------------
             **** ENERGY FILE WAS UPDATED (random3_nn2.00.en.tmp) ****
Finished Guess after   0.8 sec
Maximum memory used throughout the entire GUESS-calculation: 9.4 MB


           ************************************************************
           *        Program running with 8 parallel MPI-processes     *
           *              working on a common directory               *
           ************************************************************

-------------------------------------------------------------------------------------------
                                      ORCA LEAN-SCF
                              memory conserving SCF solver
-------------------------------------------------------------------------------------------

----------------------------------------D-I-I-S--------------------------------------------
Iteration    Energy (Eh)           Delta-E    RMSDP     MaxDP     DIISErr   Damp  Time(sec)
-------------------------------------------------------------------------------------------
               ***  Starting incremental Fock matrix formation  ***
    1    -296.2178202476268893     0.00e+00  4.57e-03  3.90e-02  5.33e-02  0.850   0.4
Warning: op=0 Small HOMO/LUMO gap (  -0.071) - skipping pre-diagonalization
         Will do a full diagonalization
    2    -296.2825623492505542    -6.47e-02  6.00e-03  4.16e-02  3.52e-02  0.850   0.4
                               ***Turning on AO-DIIS***
    3    -296.3138571371430885    -3.13e-02  3.84e-03  2.18e-02  1.55e-02  0.850   0.3
    4    -296.3056531983547188     8.20e-03  1.76e-02  7.99e-02  2.05e-02  0.000   0.3
    5    -296.0275425278976513     2.78e-01  4.61e-03  3.08e-02  1.22e-01  0.000   0.3
    6    -296.1594990865882551    -1.32e-01  4.86e-04  3.67e-03  8.09e-02  0.850   0.3
    7    -296.1720684015676284    -1.26e-02  7.69e-04  5.08e-03  7.74e-02  0.850   0.3
    8    -296.1913428295949302    -1.93e-02  1.14e-03  6.56e-03  7.21e-02  0.850   0.3
    9    -296.2168066738886978    -2.55e-02  3.07e-03  3.65e-02  6.41e-02  0.850   0.5
   10    -296.2639349540388025    -4.71e-02  2.43e-03  1.66e-02  5.15e-02  0.850   0.4
   11    -296.2982983616802244    -3.44e-02  1.98e-03  9.36e-03  3.93e-02  0.850   0.2
   12    -296.3206836235549986    -2.24e-02  1.62e-03  8.05e-03  2.81e-02  0.850   0.3
   13    -296.3340957763817300    -1.34e-02  8.80e-03  4.19e-02  1.89e-02  0.000   0.4
   14    -296.3357248202408414    -1.63e-03  1.63e-03  1.33e-02  2.52e-02  0.000   0.3
   15    -296.3453295433411654    -9.60e-03  1.12e-03  1.30e-02  1.92e-02  0.000   0.3
   16    -296.3507097270247073    -5.38e-03  7.40e-04  4.22e-03  1.47e-02  0.000   0.3
   17    -296.3538810979057985    -3.17e-03  6.21e-04  4.33e-03  1.12e-02  0.000   0.3
   18    -296.3557423693330861    -1.86e-03  9.37e-04  1.00e-02  8.76e-03  0.000   0.4
   19    -296.3571851407694453    -1.44e-03  9.83e-04  1.03e-02  6.07e-03  0.000   0.2
   20    -296.3581003257093585    -9.15e-04  7.06e-04  6.34e-03  3.42e-03  0.000   0.3
               *** Restarting incremental Fock matrix formation ***
                             ****Resetting DIIS****
Warning: op=0 Small HOMO/LUMO gap (  -0.008) - skipping pre-diagonalization
         Will do a full diagonalization
   21    -296.3583034365195203    -2.03e-04  2.96e-03  1.90e-02  2.97e-03  0.000   0.3
   22    -296.3504280256244670     7.88e-03  1.03e-03  9.84e-03  1.97e-02  0.000   0.3
   23    -296.3547888352746327    -4.36e-03  5.33e-04  2.91e-03  1.34e-02  0.000   0.3
   24    -296.3566061618089975    -1.82e-03  3.55e-04  2.10e-03  9.52e-03  0.000   0.2
   25    -296.3574837186105810    -8.78e-04  2.67e-04  1.59e-03  6.99e-03  0.000   0.2
   26    -296.3579459628301151    -4.62e-04  9.48e-04  7.48e-03  5.28e-03  0.000   0.3
   27    -296.3581961968038172    -2.50e-04  7.87e-04  8.38e-03  4.08e-03  0.000   0.2
   28    -296.3585281337056472    -3.32e-04  4.34e-04  4.25e-03  1.41e-03  0.000   0.2
   29    -296.3585213298247822     6.80e-06  2.06e-04  2.46e-03  1.44e-03  0.000   0.3
   30    -296.3585702051045132    -4.89e-05  1.46e-04  1.06e-03  1.00e-03  0.000   0.3
                              *** Initializing SOSCF ***
---------------------------------------S-O-S-C-F--------------------------------------
Iteration    Energy (Eh)           Delta-E    RMSDP     MaxDP     MaxGrad    Time(sec)
--------------------------------------------------------------------------------------
   31    -296.3585934322873641    -2.32e-05  2.02e-04  1.14e-03  6.47e-04     0.3
               *** Restarting incremental Fock matrix formation ***
   32    -296.3585953465462239    -1.91e-06  4.79e-04  3.86e-03  4.82e-04     0.3
   33    -296.3584861442356555     1.09e-04  3.48e-04  2.60e-03  1.52e-03     0.2
   34    -296.3586124772273820    -1.26e-04  1.81e-04  1.35e-03  3.03e-04     0.4
   35    -296.3586088335384261     3.64e-06  1.15e-04  8.02e-04  3.60e-04     0.3
   36    -296.3586192506745078    -1.04e-05  2.24e-04  1.33e-03  2.12e-04     0.5
   37    -296.3586160588429834     3.19e-06  1.91e-04  8.82e-04  4.10e-04     0.3
   38    -296.3586305481870227    -1.45e-05  4.14e-04  1.92e-03  2.39e-04     0.3
   39    -296.3586389708474940    -8.42e-06  7.12e-04  3.43e-03  2.64e-04     0.3
   40    -296.3586513688121045    -1.24e-05  6.90e-04  3.18e-03  3.42e-04     0.4
   41    -296.3586542626717915    -2.89e-06  1.13e-04  1.15e-03  4.18e-04     0.3
   42    -296.3586614536030197    -7.19e-06  8.10e-05  7.69e-04  9.07e-05     0.3
   43    -296.3586613718974263     8.17e-08  4.39e-05  4.13e-04  1.64e-04     0.2
   44    -296.3586625252054887    -1.15e-06  4.78e-05  2.21e-04  6.87e-05     0.5
   45    -296.3586629062288580    -3.81e-07  1.49e-04  5.52e-04  5.27e-05     0.3
   46    -296.3586639865441725    -1.08e-06  3.45e-04  1.36e-03  9.51e-05     0.2
   47    -296.3586654285862210    -1.44e-06  3.32e-04  1.33e-03  8.56e-05     0.3
   48    -296.3586666010278918    -1.17e-06  9.99e-05  4.87e-04  7.86e-05     0.2
   49    -296.3586677580530591    -1.16e-06  2.44e-04  1.21e-03  5.79e-05     0.2
   50    -296.3586696622532486    -1.90e-06  3.86e-04  1.73e-03  1.22e-04     0.3

       ******************************************************************************
       ***                                                                        ***
       ***                               Auto-TRAH                                ***
       ***                               ---------                                ***
       *** the maximum gradient error decreased on average only by a factor   1.0 ***
       *** during the last  10 iterations                                         ***
       ***                                                                        ***
       ***               Leaving SCF to start the TRAH-SCF procedure              ***
       ***                                                                        ***
       ******************************************************************************

 --------------------------------------------------------------------------------------------
   Iter.        energy            ||Error||_2        Shift      TRadius  Mac/Mic        Rej.
 --------------------------------------------------------------------------------------------
    0       -296.358672365862     8.247488e-04                     0.400 (TRAH MAcro)   No
WARNING: 1 diagonal Hessian elements are negative!
WARNING : negative HOMO - LUMO gap : -0.003571
WARNING : negative HOMO - LUMO gap : -0.003571
    0     dE    -4.270490e-09     8.606541e-04    -8.5410e-09      0.000 (TRAH MIcro)
    0     dE    -4.079478e-07     1.247747e-03    -8.1589e-07      0.003 (TRAH MIcro)
    0     dE    -1.177712e-06     1.496763e-03    -2.3553e-06      0.007 (TRAH MIcro)
    0     dE    -1.546999e-06     9.995307e-04    -3.0937e-06      0.009 (TRAH MIcro)
    0     dE    -1.653189e-06     6.342334e-04    -3.3061e-06      0.010 (TRAH MIcro)
    0     dE    -1.731560e-06     3.449837e-04    -3.4627e-06      0.011 (TRAH MIcro)
    0     dE    -1.768304e-06     3.142147e-04    -3.5361e-06      0.012 (TRAH MIcro)
    0     dE    -1.793985e-06     2.735908e-04    -3.5874e-06      0.013 (TRAH MIcro)
    0     dE    -1.820063e-06     1.850265e-04    -3.6394e-06      0.015 (TRAH MIcro)
    0     dE    -1.824366e-06     1.259785e-04    -3.6479e-06      0.015 (TRAH MIcro)
    0     dE    -1.826325e-06     7.301367e-05    -3.6518e-06      0.015 (TRAH MIcro)
    1       -296.358674205548     1.987890e-04                     0.480 (TRAH MAcro)   No
WARNING: 1 diagonal Hessian elements are negative!
WARNING : negative HOMO - LUMO gap : -0.003582
WARNING : negative HOMO - LUMO gap : -0.003582
    1     dE    -4.382209e-09     1.186338e-04    -8.7644e-09      0.000 (TRAH MIcro)
    1     dE    -6.089778e-09     6.319969e-05    -1.2180e-08      0.000 (TRAH MIcro)
    1     dE    -6.392082e-09     4.531830e-05    -1.2784e-08      0.000 (TRAH MIcro)
    1     dE    -6.561846e-09     3.293075e-05    -1.3124e-08      0.000 (TRAH MIcro)
    1     dE    -6.698702e-09     2.453847e-05    -1.3397e-08      0.000 (TRAH MIcro)
    1     dE    -6.748116e-09     1.321730e-05    -1.3496e-08      0.000 (TRAH MIcro)
    2       -296.358674212298     1.322150e-05                           (NR   MAcro)
WARNING: 1 diagonal Hessian elements are negative!
WARNING : negative HOMO - LUMO gap : -0.003604
    2     dE    -1.109284e-11     9.471510e-06                           (NR   MIcro)
    2     dE    -1.601860e-11     7.141395e-06                           (NR   MIcro)
    2     dE    -1.882892e-11     5.975010e-06                           (NR   MIcro)
    2     dE    -2.343863e-11     5.011164e-06                           (NR   MIcro)
    2     dE    -2.746194e-11     6.102047e-06                           (NR   MIcro)
    2     dE    -3.370307e-11     9.230599e-06                           (NR   MIcro)
    2     dE    -5.156578e-11     1.658048e-05                           (NR   MIcro)
    2     dE    -1.053820e-10     2.755308e-05                           (NR   MIcro)
    2     dE    -4.014264e-10     3.816418e-05                           (NR   MIcro)
    2     dE    -7.033150e-10     2.729947e-05                           (NR   MIcro)
    2     dE    -8.247968e-10     1.391681e-05                           (NR   MIcro)
    2     dE    -8.505160e-10     7.246796e-06                           (NR   MIcro)
    2     dE    -8.565480e-10     3.573608e-06                           (NR   MIcro)
    2     dE    -8.578279e-10     2.096158e-06                           (NR   MIcro)
    2     dE    -8.583709e-10     7.863595e-07                           (NR   MIcro)
    3       -296.358674213155     9.299403e-07                           (NR   MAcro)

               *****************************************************
               *                     SUCCESS                       *
               *           SCF CONVERGED AFTER  86 CYCLES          *
               *****************************************************

Warning: op=0 Small HOMO/LUMO gap (  -0.004) - skipping pre-diagonalization
             **** ENERGY FILE WAS UPDATED (random3_nn2.00.en.tmp) ****

----------------
TOTAL SCF ENERGY
----------------

Total Energy       :       -296.35867421315487 Eh           -8064.32951 eV

Components:
Nuclear Repulsion  :        239.94222291041325 Eh            6529.15982 eV
Electronic Energy  :       -536.30089712356812 Eh          -14593.48933 eV
One Electron Energy:       -867.95748778395068 Eh          -23618.32397 eV
Two Electron Energy:        331.65659066038256 Eh            9024.83465 eV

Virial components:
Potential Energy   :       -587.71483776523792 Eh          -15992.53378 eV
Kinetic Energy     :        291.35616355208305 Eh            7928.20427 eV
Virial Ratio       :          2.01716974372563

DFT components:
N(Alpha)           :       29.999991199492 electrons
N(Beta)            :       29.999991199492 electrons
N(Total)           :       59.999982398985 electrons
E(X)               :      -44.696952329572 Eh       
E(C)               :       -1.783952306735 Eh       
E(XC)              :      -46.480904636307 Eh       

---------------
SCF CONVERGENCE
---------------

  Last Energy change         ...   -8.5714e-10  Tolerance :   1.0000e-08
  Last MAX-Density change    ...    1.9033e-03  Tolerance :   1.0000e-07
  Last RMS-Density change    ...    4.0252e-04  Tolerance :   5.0000e-09
  Last DIIS Error            ...    6.4685e-04  Tolerance :   5.0000e-07
  Last Orbital Gradient      ...    9.2994e-07  Tolerance :   1.0000e-05
  Last Orbital Rotation      ...    6.2876e-04  Tolerance :   1.0000e-05


----------------
ORBITAL ENERGIES
----------------

  NO   OCC          E(Eh)            E(eV) 
   0   2.0000      -6.680655      -181.7899 
   1   2.0000      -6.669518      -181.4868 
   2   2.0000      -6.667239      -181.4248 
   3   2.0000      -6.660861      -181.2512 
   4   2.0000      -6.658147      -181.1774 
   5   2.0000      -6.657326      -181.1550 
   6   2.0000      -6.652520      -181.0243 
   7   2.0000      -6.651809      -181.0049 
   8   2.0000      -6.650405      -180.9667 
   9   2.0000      -6.639110      -180.6594 
  10   2.0000      -6.636491      -180.5881 
  11   2.0000      -6.632886      -180.4900 
  12   2.0000      -0.475276       -12.9329 
  13   2.0000      -0.445381       -12.1194 
  14   2.0000      -0.431270       -11.7354 
  15   2.0000      -0.425683       -11.5834 
  16   2.0000      -0.378173       -10.2906 
  17   2.0000      -0.372547       -10.1375 
  18   2.0000      -0.367062        -9.9883 
  19   2.0000      -0.346539        -9.4298 
  20   2.0000      -0.317829        -8.6486 
  21   2.0000      -0.297801        -8.1036 
  22   2.0000      -0.275172        -7.4878 
  23   2.0000      -0.254339        -6.9209 
  24   2.0000      -0.235653        -6.4125 
  25   2.0000      -0.227435        -6.1888 
  26   2.0000      -0.217711        -5.9242 
  27   2.0000      -0.210531        -5.7288 
  28   2.0000      -0.204482        -5.5642 
  29   2.0000      -0.190274        -5.1776 
  30   0.0000      -0.193877        -5.2757 
  31   0.0000      -0.189313        -5.1515 
  32   0.0000      -0.182380        -4.9628 
  33   0.0000      -0.171153        -4.6573 
  34   0.0000      -0.164816        -4.4849 
  35   0.0000      -0.163328        -4.4444 
  36   0.0000      -0.151138        -4.1127 
  37   0.0000      -0.142848        -3.8871 
  38   0.0000      -0.139967        -3.8087 
  39   0.0000      -0.135984        -3.7003 
  40   0.0000      -0.125475        -3.4143 
*Only the first 10 virtual orbitals were printed.

                    ********************************
                    * MULLIKEN POPULATION ANALYSIS *
                    ********************************

-----------------------
MULLIKEN ATOMIC CHARGES
-----------------------
   0 B :    0.017781
   1 B :    0.072645
   2 B :    0.063137
   3 B :   -0.225026
   4 B :    0.005638
   5 B :    0.104908
   6 B :    0.053429
   7 B :   -0.032174
   8 B :    0.026769
   9 B :    0.008413
  10 B :    0.095190
  11 B :   -0.190709
Sum of atomic charges:   -0.0000000

--------------------------------
MULLIKEN REDUCED ORBITAL CHARGES
--------------------------------
  0 B s       :     3.682006  s :     3.682006
      pz      :     0.418459  p :     1.287970
      px      :     0.411469
      py      :     0.458041
      dz2     :     0.003460  d :     0.012243
      dxz     :     0.002285
      dyz     :     0.001985
      dx2y2   :     0.001169
      dxy     :     0.003345

  1 B s       :     3.853527  s :     3.853527
      pz      :     0.406620  p :     1.066818
      px      :     0.255808
      py      :     0.404389
      dz2     :     0.002554  d :     0.007010
      dxz     :     0.001659
      dyz     :     0.001565
      dx2y2   :     0.000814
      dxy     :     0.000418

  2 B s       :     3.849311  s :     3.849311
      pz      :     0.305080  p :     1.079676
      px      :     0.449126
      py      :     0.325470
      dz2     :     0.000634  d :     0.007876
      dxz     :     0.002801
      dyz     :     0.001195
      dx2y2   :     0.002121
      dxy     :     0.001126

  3 B s       :     3.579498  s :     3.579498
      pz      :     0.488978  p :     1.637087
      px      :     0.672858
      py      :     0.475252
      dz2     :     0.002147  d :     0.008440
      dxz     :     0.002774
      dyz     :     0.000513
      dx2y2   :     0.001104
      dxy     :     0.001903

  4 B s       :     3.659661  s :     3.659661
      pz      :     0.341735  p :     1.328219
      px      :     0.350439
      py      :     0.636045
      dz2     :     0.000798  d :     0.006482
      dxz     :     0.000507
      dyz     :     0.000676
      dx2y2   :     0.002192
      dxy     :     0.002309

  5 B s       :     3.853692  s :     3.853692
      pz      :     0.304475  p :     1.034679
      px      :     0.241830
      py      :     0.488373
      dz2     :     0.001677  d :     0.006721
      dxz     :     0.000544
      dyz     :     0.001190
      dx2y2   :     0.000922
      dxy     :     0.002388

  6 B s       :     3.818167  s :     3.818167
      pz      :     0.290271  p :     1.121536
      px      :     0.496372
      py      :     0.334893
      dz2     :     0.001173  d :     0.006868
      dxz     :     0.000395
      dyz     :     0.000945
      dx2y2   :     0.000594
      dxy     :     0.003761

  7 B s       :     3.707844  s :     3.707844
      pz      :     0.523268  p :     1.313166
      px      :     0.533539
      py      :     0.256359
      dz2     :     0.001485  d :     0.011165
      dxz     :     0.002828
      dyz     :     0.001415
      dx2y2   :     0.003201
      dxy     :     0.002235

  8 B s       :     3.758152  s :     3.758152
      pz      :     0.232477  p :     1.208045
      px      :     0.412888
      py      :     0.562681
      dz2     :     0.000812  d :     0.007033
      dxz     :     0.000702
      dyz     :     0.001161
      dx2y2   :     0.003130
      dxy     :     0.001229

  9 B s       :     3.539919  s :     3.539919
      pz      :     0.409000  p :     1.439172
      px      :     0.481509
      py      :     0.548663
      dz2     :     0.001787  d :     0.012496
      dxz     :     0.002313
      dyz     :     0.002718
      dx2y2   :     0.003577
      dxy     :     0.002101

 10 B s       :     3.913663  s :     3.913663
      pz      :     0.518141  p :     0.983298
      px      :     0.342411
      py      :     0.122747
      dz2     :     0.001797  d :     0.007849
      dxz     :     0.004121
      dyz     :     0.000693
      dx2y2   :     0.000735
      dxy     :     0.000502

 11 B s       :     3.494228  s :     3.494228
      pz      :     0.531510  p :     1.685125
      px      :     0.554626
      py      :     0.598989
      dz2     :     0.001284  d :     0.011356
      dxz     :     0.002042
      dyz     :     0.002728
      dx2y2   :     0.002880
      dxy     :     0.002422



                     *******************************
                     * LOEWDIN POPULATION ANALYSIS *
                     *******************************

----------------------
LOEWDIN ATOMIC CHARGES
----------------------
   0 B :   -0.055213
   1 B :    0.100657
   2 B :    0.022927
   3 B :   -0.152761
   4 B :    0.032822
   5 B :    0.058612
   6 B :    0.037417
   7 B :    0.025429
   8 B :    0.044269
   9 B :   -0.088297
  10 B :    0.069129
  11 B :   -0.094989

-------------------------------
LOEWDIN REDUCED ORBITAL CHARGES
-------------------------------
  0 B s       :     3.422809  s :     3.422809
      pz      :     0.531531  p :     1.607043
      px      :     0.516116
      py      :     0.559396
      dz2     :     0.008186  d :     0.025360
      dxz     :     0.004659
      dyz     :     0.003441
      dx2y2   :     0.001792
      dxy     :     0.007281

  1 B s       :     3.672965  s :     3.672965
      pz      :     0.494116  p :     1.214433
      px      :     0.283012
      py      :     0.437304
      dz2     :     0.005076  d :     0.011945
      dxz     :     0.002827
      dyz     :     0.002397
      dx2y2   :     0.001082
      dxy     :     0.000563

  2 B s       :     3.658188  s :     3.658188
      pz      :     0.368731  p :     1.304573
      px      :     0.558809
      py      :     0.377032
      dz2     :     0.000832  d :     0.014312
      dxz     :     0.005639
      dyz     :     0.002035
      dx2y2   :     0.004220
      dxy     :     0.001586

  3 B s       :     3.316476  s :     3.316476
      pz      :     0.550330  p :     1.815944
      px      :     0.727406
      py      :     0.538208
      dz2     :     0.004549  d :     0.020341
      dxz     :     0.007864
      dyz     :     0.000962
      dx2y2   :     0.002410
      dxy     :     0.004555

  4 B s       :     3.444046  s :     3.444046
      pz      :     0.348336  p :     1.507323
      px      :     0.395465
      py      :     0.763522
      dz2     :     0.002282  d :     0.015809
      dxz     :     0.000681
      dyz     :     0.001690
      dx2y2   :     0.005044
      dxy     :     0.006111

  5 B s       :     3.697725  s :     3.697725
      pz      :     0.350464  p :     1.231087
      px      :     0.301464
      py      :     0.579160
      dz2     :     0.003143  d :     0.012577
      dxz     :     0.000856
      dyz     :     0.001894
      dx2y2   :     0.001276
      dxy     :     0.005408

  6 B s       :     3.642391  s :     3.642391
      pz      :     0.309205  p :     1.306088
      px      :     0.573640
      py      :     0.423243
      dz2     :     0.002609  d :     0.014105
      dxz     :     0.000660
      dyz     :     0.001437
      dx2y2   :     0.000778
      dxy     :     0.008621

  7 B s       :     3.425739  s :     3.425739
      pz      :     0.570525  p :     1.525871
      px      :     0.656498
      py      :     0.298848
      dz2     :     0.002850  d :     0.022961
      dxz     :     0.005813
      dyz     :     0.002696
      dx2y2   :     0.007421
      dxy     :     0.004180

  8 B s       :     3.559434  s :     3.559434
      pz      :     0.264313  p :     1.382175
      px      :     0.440519
      py      :     0.677343
      dz2     :     0.001675  d :     0.014121
      dxz     :     0.001239
      dyz     :     0.002507
      dx2y2   :     0.006661
      dxy     :     0.002038

  9 B s       :     3.276372  s :     3.276372
      pz      :     0.474208  p :     1.780286
      px      :     0.634705
      py      :     0.671374
      dz2     :     0.003179  d :     0.031639
      dxz     :     0.005654
      dyz     :     0.007304
      dx2y2   :     0.010714
      dxy     :     0.004788

 10 B s       :     3.716385  s :     3.716385
      pz      :     0.644595  p :     1.197164
      px      :     0.419877
      py      :     0.132692
      dz2     :     0.003542  d :     0.017323
      dxz     :     0.010319
      dyz     :     0.001010
      dx2y2   :     0.001740
      dxy     :     0.000712

 11 B s       :     3.206613  s :     3.206613
      pz      :     0.567884  p :     1.863482
      px      :     0.624908
      py      :     0.670690
      dz2     :     0.002210  d :     0.024894
      dxz     :     0.004802
      dyz     :     0.006015
      dx2y2   :     0.007291
      dxy     :     0.004575



                      *****************************
                      * MAYER POPULATION ANALYSIS *
                      *****************************

  NA   - Mulliken gross atomic population
  ZA   - Total nuclear charge
  QA   - Mulliken gross atomic charge
  VA   - Mayer's total valence
  BVA  - Mayer's bonded valence
  FA   - Mayer's free valence

  ATOM       NA         ZA         QA         VA         BVA        FA
  0 B      4.9822     5.0000     0.0178     2.4706     2.4706    -0.0000
  1 B      4.9274     5.0000     0.0726     1.9316     1.9316    -0.0000
  2 B      4.9369     5.0000     0.0631     1.9310     1.9310     0.0000
  3 B      5.2250     5.0000    -0.2250     2.7757     2.7757     0.0000
  4 B      4.9944     5.0000     0.0056     2.3512     2.3512    -0.0000
  5 B      4.8951     5.0000     0.1049     1.7435     1.7435    -0.0000
  6 B      4.9466     5.0000     0.0534     2.0287     2.0287    -0.0000
  7 B      5.0322     5.0000    -0.0322     2.4316     2.4316    -0.0000
  8 B      4.9732     5.0000     0.0268     2.1839     2.1839    -0.0000
  9 B      4.9916     5.0000     0.0084     2.7687     2.7687    -0.0000
 10 B      4.9048     5.0000     0.0952     1.4144     1.4144     0.0000
 11 B      5.1907     5.0000    -0.1907     2.9716     2.9716    -0.0000

  Mayer bond orders larger than 0.100000
B(  0-B ,  1-B ) :   0.6058 B(  0-B ,  3-B ) :   0.1073 B(  0-B ,  4-B ) :   0.1598 
B(  0-B ,  7-B ) :   0.1277 B(  0-B ,  8-B ) :   0.5221 B(  0-B , 11-B ) :   0.6269 
B(  1-B ,  3-B ) :   0.2691 B(  1-B ,  4-B ) :   0.1226 B(  1-B ,  6-B ) :   0.1181 
B(  1-B ,  7-B ) :   0.1086 B(  1-B ,  8-B ) :   0.2068 B(  1-B , 11-B ) :   0.2128 
B(  2-B ,  3-B ) :   0.2112 B(  2-B ,  5-B ) :   0.1478 B(  2-B ,  7-B ) :   0.3682 
B(  2-B ,  9-B ) :   0.2915 B(  2-B , 11-B ) :   0.5689 B(  3-B ,  4-B ) :   0.1648 
B(  3-B ,  5-B ) :   0.6846 B(  3-B ,  6-B ) :   0.1950 B(  3-B ,  8-B ) :   0.1120 
B(  3-B , 10-B ) :   0.7478 B(  3-B , 11-B ) :   0.1482 B(  4-B ,  6-B ) :   0.7372 
B(  4-B ,  8-B ) :   0.7552 B(  5-B ,  7-B ) :   0.3297 B(  5-B ,  9-B ) :   0.1107 
B(  5-B , 10-B ) :   0.1183 B(  6-B ,  8-B ) :   0.2474 B(  6-B ,  9-B ) :   0.2889 
B(  7-B ,  9-B ) :   0.8987 B(  7-B , 11-B ) :   0.3078 B(  9-B , 11-B ) :   0.8098 


-------
TIMINGS
-------

Total SCF time: 0 days 0 hours 0 min 23 sec 

Total time                  ....      23.125 sec
Sum of individual times     ....      22.255 sec  ( 96.2%)

SCF preparation             ....       0.574 sec  (  2.5%)
Fock matrix formation       ....      19.010 sec  ( 82.2%)
  Startup                   ....       0.029 sec  (  0.2% of F)
  Split-RI-J                ....       7.800 sec  ( 41.0% of F)
  XC integration            ....      10.054 sec  ( 52.9% of F)
    XC Preparation          ....       0.000 sec  (  0.0% of XC)
    Basis function eval.    ....       2.309 sec  ( 23.0% of XC)
    Density eval.           ....       1.384 sec  ( 13.8% of XC)
    XC-Functional eval.     ....       0.317 sec  (  3.2% of XC)
    XC-Potential eval.      ....       1.676 sec  ( 16.7% of XC)
Diagonalization             ....       0.000 sec  (  0.0%)
Density matrix formation    ....       0.402 sec  (  1.7%)
Total Energy calculation    ....       0.180 sec  (  0.8%)
Population analysis         ....       0.030 sec  (  0.1%)
Orbital Transformation      ....       0.333 sec  (  1.4%)
Orbital Orthonormalization  ....       0.000 sec  (  0.0%)
DIIS solution               ....       1.014 sec  (  4.4%)
SOSCF solution              ....       0.706 sec  (  3.1%)
NR solution                 ....       0.005 sec  (  0.0%)
Finished LeanSCF after  23.1 sec

Maximum memory used throughout the entire LEANSCF-calculation: 10.9 MB


-------------------------------------------------------------------------------
                          DFT DISPERSION CORRECTION                            
                                                                               
                              DFTD3 V3.1  Rev 1                                
                          USING Becke-Johnson damping                          
-------------------------------------------------------------------------------
The BP86 functional is recognized
Active option DFTDOPT                   ...         4   

molecular C6(AA) [au] = 13679.866504 


            DFT-D V3
 parameters
 s6 scaling factor         :     1.0000 
 a1 scaling factor         :     0.3946 
 s8 scaling factor         :     3.2822 
 a2 scaling factor         :     4.8516 
 ad hoc parameters k1-k3   :    16.0000     1.3333    -4.0000 

 Edisp/kcal,au: -42.458861687794  -0.067662495809 
 E6   /kcal   : -12.483504085 
 E8   /kcal   : -29.975357603 
 % E8         :  70.598589815 

-------------------------   ----------------
Dispersion correction           -0.067662496
-------------------------   ----------------


-------------------------   --------------------
FINAL SINGLE POINT ENERGY      -296.426336708964
-------------------------   --------------------



           ************************************************************
           *        Program running with 8 parallel MPI-processes     *
           *              working on a common directory               *
           ************************************************************
------------------------------------------------------------------------------
                         ORCA SCF GRADIENT CALCULATION
------------------------------------------------------------------------------

Nuc. rep. gradient        (SHARK) ... done (  0.0 sec)
HCore & Overlap gradient  (SHARK) ... done (  0.1 sec)
Split-RIJ-J gradient      (SHARK) ... done (  0.3 sec)
XC gradient                       ... done (  0.8 sec)
Dispersion correction             ... done (  0.1 sec)

-------------------
DISPERSION GRADIENT
-------------------

   1   B   :   -0.001207274    0.000497092    0.000608618
   2   B   :    0.000358757   -0.002187070   -0.000646274
   3   B   :   -0.000307329   -0.000630363   -0.001197080
   4   B   :    0.002100855    0.002763215    0.006595661
   5   B   :    0.000521679    0.000743273   -0.000306575
   6   B   :   -0.000048872    0.000068869    0.001357099
   7   B   :    0.003339112    0.000005169   -0.000512121
   8   B   :    0.001680389   -0.000623880   -0.001828856
   9   B   :    0.001835106    0.000552290   -0.000829281
  10   B   :   -0.003337616   -0.001814052    0.000924962
  11   B   :   -0.003797882    0.000169651   -0.002621609
  12   B   :   -0.001136925    0.000455805   -0.001544545

Difference to translation invariance:
           :    0.0000000000   -0.0000000000    0.0000000000

Difference to rotation invariance:
           :    0.0000000000   -0.0000000000   -0.0000000000

Norm of the Dispersion gradient    ...    0.0114226137
RMS gradient                       ...    0.0019037690
MAX gradient                       ...    0.0065956613

------------------
CARTESIAN GRADIENT
------------------

   1   B   :    0.013762032   -0.056499644   -0.037709136
   2   B   :   -0.012521372   -0.011598389    0.042672653
   3   B   :   -0.046915274   -0.020469901    0.023663021
   4   B   :    0.002431906   -0.012575649   -0.001404830
   5   B   :    0.036927039    0.012996452   -0.008636854
   6   B   :   -0.023836615    0.040710149    0.014777110
   7   B   :   -0.008819660    0.046726588   -0.006920145
   8   B   :   -0.050933666    0.027723887   -0.011891144
   9   B   :    0.030463745   -0.033805430    0.021682351
  10   B   :    0.036832674    0.020773526   -0.053519727
  11   B   :    0.019753918    0.007485466    0.034625522
  12   B   :    0.002855271   -0.021467054   -0.017338821

Difference to translation invariance:
           :    0.0000000000   -0.0000000000    0.0000000000

Difference to rotation invariance:
           :    0.0000604320   -0.0000847891    0.0001805410

Norm of the Cartesian gradient     ...    0.1724368483
RMS gradient                       ...    0.0287394747
MAX gradient                       ...    0.0564996441

-------
TIMINGS
-------

Total SCF gradient time     ....        1.275 sec

Densities                   ....       0.001 sec  (  0.1%)
One electron gradient       ....       0.055 sec  (  4.3%)
RI-J Coulomb gradient       ....       0.349 sec  ( 27.3%)
XC gradient                 ....       0.800 sec  ( 62.8%)

Maximum memory used throughout the entire SCFGRAD-calculation: 29.4 MB
------------------------------------------------------------------------------
                         ORCA GEOMETRY RELAXATION STEP
------------------------------------------------------------------------------

Reading the OPT-File                    .... done
Getting information on internals        .... done
Copying old internal coords+grads       .... done
Making the new internal coordinates     .... (2022 redundants) done
Validating the new internal coordinates .... (2022 redundants) done
Calculating the B-matrix                .... done
Calculating the G,G- and P matrices     .... done
Transforming gradient to internals      .... done
Projecting the internal gradient        .... done
Number of atoms                         ....  12
Number of internal coordinates          ....  81
Current Energy                          ....  -296.426336709 Eh
Current gradient norm                   ....     0.172436848 Eh/bohr
Maximum allowed component of the step   ....  0.300
Current trust radius                    ....  0.300
Evaluating the initial hessian          ....  (Almloef) done
Projecting the Hessian                  .... done
Forming the augmented Hessian           .... done
Diagonalizing the augmented Hessian     .... done
Last element of RFO vector              ....  0.751622364
Lowest eigenvalues of augmented Hessian:
 -0.223558596  0.010016387  0.010426571  0.011392784  0.011813034
Length of the computed step             ....  0.877559944
Warning: the length of the step is outside the trust region - taking restricted step instead
The input lambda is                     ....     0.009000
   iter:   5  x=   -0.008149  g= 7586.091148 f(x)=    59.983349
   iter:  10  x=   -0.248904  g=   13.417878 f(x)=     1.292072
   iter:  15  x=   -0.781649  g=    0.220849 f(x)=     0.003020
The output lambda is                    ....    -0.781992 (19 iterations)
The final length of the internal step   ....  0.300000000
Converting the step to Cartesian space:
 Initial RMS(Int)=    0.0333333333
Transforming coordinates:
 Iter   0:  RMS(Cart)=    0.2822047826 RMS(Int)=    0.0320078194
 Iter   5:  RMS(Cart)=    0.0000319181 RMS(Int)=    0.0000150639
done
Storing new coordinates                 .... done

                                .--------------------.
          ----------------------|Geometry convergence|-------------------------
          Item                value                   Tolerance       Converged
          ---------------------------------------------------------------------
          RMS gradient        0.0287181044            0.0001000000      NO
          MAX gradient        0.1012107704            0.0003000000      NO
          RMS step            0.0333333333            0.0020000000      NO
          MAX step            0.1044905208            0.0040000000      NO
          -------------------------------------------------------------------------
          ........................................................
          Max(Bonds)      0.0412      Max(Angles)    5.99
          Max(Dihed)        3.12      Max(Improp)    0.00
          ---------------------------------------------------------------------

The optimization has not yet converged - more geometry cycles are needed


    ---------------------------------------------------------------------------
                         Redundant Internal Coordinates
                            (Angstroem and degrees)

        Definition                    Value    dE/dq     Step     New-Value
    ----------------------------------------------------------------------------
     1. B(B   1,B   0)                2.2919  0.029280 -0.0199    2.2719   
     2. B(B   3,B   1)                3.0283  0.018396 -0.0122    3.0162   
     3. B(B   5,B   3)                2.3414  0.046306 -0.0302    2.3112   
     4. B(B   5,B   2)                3.3296  0.014022 -0.0098    3.3198   
     5. B(B   6,B   4)                2.2354  0.041335 -0.0267    2.2087   
     6. B(B   7,B   2)                2.6918  0.016241 -0.0111    2.6807   
     7. B(B   7,B   5)                2.7850  0.034481 -0.0225    2.7624   
     8. B(B   8,B   0)                2.5687  0.039789 -0.0265    2.5422   
     9. B(B   8,B   4)                2.2786  0.063347 -0.0412    2.2374   
    10. B(B   8,B   1)                3.1269  0.037125 -0.0244    3.1025   
    11. B(B   9,B   7)                2.0000  0.055589 -0.0339    1.9661   
    12. B(B  10,B   3)                2.1352  0.039673 -0.0251    2.1101   
    13. B(B  11,B   0)                2.3146  0.049947 -0.0328    2.2819   
    14. B(B  11,B   2)                2.3184  0.046824 -0.0303    2.2881   
    15. B(B  11,B   9)                2.1451  0.048691 -0.0306    2.1145   
    16. A(B   1,B   0,B  11)           84.33  0.000420   -0.02     84.31   
    17. A(B   1,B   0,B   8)           79.86 -0.002184    0.18     80.03   
    18. A(B   8,B   0,B  11)           99.35  0.044424   -3.02     96.33   
    19. A(B   0,B   1,B   3)          104.07  0.024053   -1.53    102.54   
    20. A(B   0,B   1,B   8)           53.97  0.002094   -0.16     53.81   
    21. A(B   3,B   1,B   8)           81.00  0.046403   -3.11     77.89   
    22. A(B   7,B   2,B  11)           74.30  0.006773   -0.44     73.85   
    23. A(B   5,B   2,B   7)           53.84  0.004373   -0.30     53.55   
    24. A(B   5,B   2,B  11)           94.81  0.008683   -0.56     94.25   
    25. A(B   5,B   3,B  10)          122.89  0.001631   -0.09    122.80   
    26. A(B   1,B   3,B   5)          142.83 -0.035126    2.15    144.98   
    27. A(B   1,B   3,B  10)           89.99  0.029436   -1.80     88.19   
    28. A(B   6,B   4,B   8)          134.84  0.101211   -5.99    128.85   
    29. A(B   2,B   5,B   3)           62.27  0.020650   -1.33     60.94   
    30. A(B   3,B   5,B   7)           95.55  0.021490   -1.37     94.18   
    31. A(B   2,B   5,B   7)           51.30 -0.000204    0.01     51.31   
    32. A(B   5,B   7,B   9)          104.33  0.010672   -0.70    103.63   
    33. A(B   2,B   7,B   9)           91.81  0.004475   -0.30     91.51   
    34. A(B   2,B   7,B   5)           74.86 -0.004168    0.29     75.15   
    35. A(B   1,B   8,B   4)          114.50  0.068385   -4.47    110.04   
    36. A(B   0,B   8,B   4)          115.33  0.067615   -4.38    110.95   
    37. A(B   0,B   8,B   1)           46.18  0.000090   -0.02     46.16   
    38. A(B   7,B   9,B  11)           94.28 -0.005807    0.35     94.63   
    39. A(B   0,B  11,B   9)          142.06  0.024956   -1.52    140.54   
    40. A(B   2,B  11,B   9)           99.32 -0.004462    0.33     99.65   
    41. A(B   0,B  11,B   2)          117.12 -0.020015    1.16    118.28   
    42. D(B   3,B   1,B   0,B   8)     67.56  0.042992   -2.96     64.59   
    43. D(B   8,B   1,B   0,B  11)   -100.58 -0.045733    3.12    -97.46   
    44. D(B   3,B   1,B   0,B  11)    -33.02 -0.002741    0.15    -32.87   
    45. D(B  10,B   3,B   1,B   8)    -73.46  0.002379   -0.14    -73.60   
    46. D(B   5,B   3,B   1,B   8)    132.54  0.003626   -0.25    132.30   
    47. D(B   5,B   3,B   1,B   0)     83.37 -0.010186    0.73     84.10   
    48. D(B  10,B   3,B   1,B   0)   -122.64 -0.011434    0.83   -121.80   
    49. D(B   2,B   5,B   3,B  10)   -157.14  0.005535   -0.41   -157.55   
    50. D(B   7,B   5,B   3,B  10)    162.40  0.009851   -0.67    161.73   
    51. D(B   7,B   5,B   3,B   1)    -49.08  0.007638   -0.51    -49.58   
    52. D(B   3,B   5,B   2,B  11)    -57.59 -0.006914    0.40    -57.18   
    53. D(B   3,B   5,B   2,B   7)   -124.14 -0.010300    0.64   -123.50   
    54. D(B   2,B   5,B   3,B   1)     -8.62  0.003322   -0.25     -8.86   
    55. D(B   7,B   5,B   2,B  11)     66.56  0.003387   -0.23     66.32   
    56. D(B   9,B   7,B   2,B  11)     -3.90  0.006468   -0.44     -4.34   
    57. D(B   2,B   7,B   5,B   3)     47.39  0.006479   -0.44     46.96   
    58. D(B   9,B   7,B   5,B   3)    -40.58  0.005786   -0.39    -40.97   
    59. D(B   9,B   7,B   5,B   2)    -87.98 -0.000694    0.05    -87.93   
    60. D(B   5,B   7,B   2,B  11)   -108.25 -0.003534    0.21   -108.04   
    61. D(B   9,B   7,B   2,B   5)    104.36  0.010002   -0.65    103.70   
    62. D(B   1,B   8,B   4,B   6)    -12.95 -0.007543    0.44    -12.51   
    63. D(B   4,B   8,B   1,B   3)    -12.44  0.044447   -2.99    -15.43   
    64. D(B   4,B   8,B   1,B   0)    102.37  0.034973   -2.24    100.14   
    65. D(B   0,B   8,B   1,B   3)   -114.81  0.009474   -0.75   -115.56   
[...]
      px      :     0.535500
      py      :     0.725636
      dz2     :     0.009007  d :     0.052594
      dxz     :     0.006292
      dyz     :     0.009296
      dx2y2   :     0.013778
      dxy     :     0.014220

  8 B s       :     3.208836  s :     3.208836
      pz      :     0.410462  p :     1.628863
      px      :     0.641124
      py      :     0.577277
      dz2     :     0.010699  d :     0.049548
      dxz     :     0.009057
      dyz     :     0.008679
      dx2y2   :     0.012402
      dxy     :     0.008711

  9 B s       :     2.634989  s :     2.634989
      pz      :     0.618399  p :     1.784764
      px      :     0.574699
      py      :     0.591666
      dz2     :     0.015806  d :     0.079008
      dxz     :     0.014754
      dyz     :     0.017295
      dx2y2   :     0.015252
      dxy     :     0.015901

 10 B s       :     3.195616  s :     3.195616
      pz      :     0.626892  p :     1.719044
      px      :     0.489013
      py      :     0.603139
      dz2     :     0.006179  d :     0.046227
      dxz     :     0.007431
      dyz     :     0.009340
      dx2y2   :     0.013357
      dxy     :     0.009920

 11 B s       :     3.167394  s :     3.167394
      pz      :     0.534817  p :     1.730432
      px      :     0.650530
      py      :     0.545084
      dz2     :     0.008691  d :     0.051080
      dxz     :     0.006491
      dyz     :     0.015454
      dx2y2   :     0.008806
      dxy     :     0.011638



                     *******************************
                     * LOEWDIN POPULATION ANALYSIS *
                     *******************************

----------------------
LOEWDIN ATOMIC CHARGES
----------------------
   0 B :   -0.001290
   1 B :   -0.000746
   2 B :    0.033691
   3 B :    0.004548
   4 B :   -0.004797
   5 B :    0.102468
   6 B :    0.138764
   7 B :   -0.136453
   8 B :    0.025836
   9 B :   -0.015720
  10 B :   -0.092060
  11 B :   -0.054239

-------------------------------
LOEWDIN REDUCED ORBITAL CHARGES
-------------------------------
  0 B s       :     2.758973  s :     2.758973
      pz      :     0.833438  p :     2.125190
      px      :     0.589299
      py      :     0.702452
      dz2     :     0.022809  d :     0.117127
      dxz     :     0.021903
      dyz     :     0.036244
      dx2y2   :     0.020684
      dxy     :     0.015488

  1 B s       :     2.907904  s :     2.907904
      pz      :     0.775829  p :     2.000597
      px      :     0.589919
      py      :     0.634849
      dz2     :     0.026053  d :     0.092246
      dxz     :     0.013044
      dyz     :     0.022369
      dx2y2   :     0.013813
      dxy     :     0.016968

  2 B s       :     2.756803  s :     2.756803
      pz      :     0.496483  p :     2.079721
      px      :     0.633419
      py      :     0.949818
      dz2     :     0.023210  d :     0.129785
      dxz     :     0.020240
      dyz     :     0.031137
      dx2y2   :     0.028154
      dxy     :     0.027044

  3 B s       :     2.646268  s :     2.646268
      pz      :     0.635094  p :     2.172000
      px      :     0.798678
      py      :     0.738228
      dz2     :     0.037471  d :     0.177184
      dxz     :     0.027933
      dyz     :     0.030242
      dx2y2   :     0.037305
      dxy     :     0.044232

  4 B s       :     2.768548  s :     2.768548
      pz      :     0.714305  p :     2.128377
      px      :     0.577970
      py      :     0.836102
      dz2     :     0.009027  d :     0.107872
      dxz     :     0.018713
      dyz     :     0.021286
      dx2y2   :     0.030165
      dxy     :     0.028680

  5 B s       :     2.808016  s :     2.808016
      pz      :     0.439065  p :     1.981737
      px      :     0.923321
      py      :     0.619351
      dz2     :     0.012646  d :     0.107780
      dxz     :     0.018713
      dyz     :     0.013337
      dx2y2   :     0.031384
      dxy     :     0.031700

  6 B s       :     2.815086  s :     2.815086
      pz      :     0.763136  p :     1.920405
      px      :     0.526627
      py      :     0.630643
      dz2     :     0.030351  d :     0.125745
      dxz     :     0.028701
      dyz     :     0.024657
      dx2y2   :     0.020548
      dxy     :     0.021488

  7 B s       :     2.719021  s :     2.719021
      pz      :     0.838830  p :     2.286984
      px      :     0.618190
      py      :     0.829964
      dz2     :     0.025362  d :     0.130448
      dxz     :     0.013432
      dyz     :     0.024417
      dx2y2   :     0.033421
      dxy     :     0.033818

  8 B s       :     2.728374  s :     2.728374
      pz      :     0.613759  p :     2.122643
      px      :     0.655447
      py      :     0.853437
      dz2     :     0.025606  d :     0.123147
      dxz     :     0.022139
      dyz     :     0.025371
      dx2y2   :     0.030067
      dxy     :     0.019964

  9 B s       :     2.597831  s :     2.597831
      pz      :     0.680515  p :     2.216070
      px      :     0.736090
      py      :     0.799465
      dz2     :     0.038106  d :     0.201819
      dxz     :     0.041960
      dyz     :     0.034754
      dx2y2   :     0.043023
      dxy     :     0.043976

 10 B s       :     2.736077  s :     2.736077
      pz      :     0.700926  p :     2.234875
      px      :     0.655112
      py      :     0.878836
      dz2     :     0.013928  d :     0.121108
      dxz     :     0.016452
      dyz     :     0.029176
      dx2y2   :     0.034047
      dxy     :     0.027505

 11 B s       :     2.717346  s :     2.717346
      pz      :     0.680764  p :     2.207137
      px      :     0.780417
      py      :     0.745957
      dz2     :     0.022556  d :     0.129756
      dxz     :     0.016701
      dyz     :     0.036913
      dx2y2   :     0.023119
      dxy     :     0.030468



                      *****************************
                      * MAYER POPULATION ANALYSIS *
                      *****************************

  NA   - Mulliken gross atomic population
  ZA   - Total nuclear charge
  QA   - Mulliken gross atomic charge
  VA   - Mayer's total valence
  BVA  - Mayer's bonded valence
  FA   - Mayer's free valence

  ATOM       NA         ZA         QA         VA         BVA        FA
  0 B      4.9364     5.0000     0.0636     3.1320     3.1320    -0.0000
  1 B      5.4073     5.0000    -0.4073     3.0004     3.0004    -0.0000
  2 B      5.3001     5.0000    -0.3001     3.4910     3.4910    -0.0000
  3 B      4.4267     5.0000     0.5733     3.2642     3.2642    -0.0000
  4 B      5.3589     5.0000    -0.3589     3.2429     3.2429    -0.0000
  5 B      5.1352     5.0000    -0.1352     3.4980     3.4980    -0.0000
  6 B      5.3478     5.0000    -0.3478     3.3301     3.3301    -0.0000
  7 B      4.7919     5.0000     0.2081     3.6568     3.6568    -0.0000
  8 B      4.8872     5.0000     0.1128     3.4505     3.4505    -0.0000
  9 B      4.4988     5.0000     0.5012     2.7871     2.7871     0.0000
 10 B      4.9609     5.0000     0.0391     3.0613     3.0613    -0.0000
 11 B      4.9489     5.0000     0.0511     3.3829     3.3829    -0.0000

  Mayer bond orders larger than 0.100000
B(  0-B ,  1-B ) :   1.2614 B(  0-B ,  3-B ) :   0.2970 B(  0-B , 10-B ) :   0.4763 
B(  0-B , 11-B ) :   0.8629 B(  1-B ,  3-B ) :   0.2095 B(  1-B , 10-B ) :   1.3152 
B(  2-B ,  5-B ) :   0.1963 B(  2-B ,  6-B ) :   0.4053 B(  2-B ,  7-B ) :   1.1381 
B(  2-B ,  9-B ) :   0.3661 B(  2-B , 11-B ) :   1.1510 B(  3-B ,  6-B ) :   1.1255 
B(  3-B ,  8-B ) :   0.3654 B(  3-B ,  9-B ) :   0.3217 B(  3-B , 10-B ) :   0.3683 
B(  3-B , 11-B ) :   0.3120 B(  4-B ,  5-B ) :   1.2173 B(  4-B ,  6-B ) :   0.1317 
B(  4-B ,  8-B ) :   1.2814 B(  4-B ,  9-B ) :   0.4053 B(  5-B ,  6-B ) :   0.2642 
B(  5-B ,  7-B ) :   1.2503 B(  5-B ,  8-B ) :   0.1080 B(  5-B ,  9-B ) :   0.2662 
B(  6-B ,  7-B ) :   0.7263 B(  6-B ,  8-B ) :   0.1648 B(  6-B ,  9-B ) :   0.1153 
B(  6-B , 11-B ) :   0.3336 B(  7-B ,  9-B ) :   0.2376 B(  8-B ,  9-B ) :   0.4145 
B(  8-B , 10-B ) :   0.8304 B(  9-B , 11-B ) :   0.5223 

-------
TIMINGS
-------

Total SCF time: 0 days 0 hours 0 min 4 sec 

Total time                  ....       4.770 sec
Sum of individual times     ....       4.156 sec  ( 87.1%)

SCF preparation             ....       0.586 sec  ( 12.3%)
Fock matrix formation       ....       2.519 sec  ( 52.8%)
  Startup                   ....       0.126 sec  (  5.0% of F)
  Split-RI-J                ....       0.915 sec  ( 36.3% of F)
  XC integration            ....       1.728 sec  ( 68.6% of F)
    XC Preparation          ....       0.000 sec  (  0.0% of XC)
    Basis function eval.    ....       0.390 sec  ( 22.6% of XC)
    Density eval.           ....       0.285 sec  ( 16.5% of XC)
    XC-Functional eval.     ....       0.051 sec  (  2.9% of XC)
    XC-Potential eval.      ....       0.302 sec  ( 17.5% of XC)
Diagonalization             ....       0.000 sec  (  0.0%)
Density matrix formation    ....       0.090 sec  (  1.9%)
Total Energy calculation    ....       0.028 sec  (  0.6%)
Population analysis         ....       0.396 sec  (  8.3%)
Orbital Transformation      ....       0.095 sec  (  2.0%)
Orbital Orthonormalization  ....       0.000 sec  (  0.0%)
DIIS solution               ....       0.029 sec  (  0.6%)
SOSCF solution              ....       0.414 sec  (  8.7%)
Finished LeanSCF after   5.2 sec

Maximum memory used throughout the entire LEANSCF-calculation: 18.1 MB


-------------------------------------------------------------------------------
                          DFT DISPERSION CORRECTION                            
                                                                               
                              DFTD3 V3.1  Rev 1                                
                          USING Becke-Johnson damping                          
-------------------------------------------------------------------------------
The BP86 functional is recognized
Active option DFTDOPT                   ...         4   

molecular C6(AA) [au] = 4570.723914 


            DFT-D V3
 parameters
 s6 scaling factor         :     1.0000 
 a1 scaling factor         :     0.3946 
 s8 scaling factor         :     3.2822 
 a2 scaling factor         :     4.8516 
 ad hoc parameters k1-k3   :    16.0000     1.3333    -4.0000 

 Edisp/kcal,au: -22.719957156322  -0.036206552525 
 E6   /kcal   :  -6.528161178 
 E8   /kcal   : -16.191795978 
 % E8         :  71.266842041 

-------------------------   ----------------
Dispersion correction           -0.036206553
-------------------------   ----------------


-------------------------   --------------------
FINAL SINGLE POINT ENERGY      -297.662798220819
-------------------------   --------------------

                                *** OPTIMIZATION RUN DONE ***



           ************************************************************
           *        Program running with 8 parallel MPI-processes     *
           *              working on a common directory               *
           ************************************************************

------------------------------------------------------------------------------
                              ORCA PROPERTY CALCULATIONS
------------------------------------------------------------------------------

GBWName                                 ... random3_nn2.00.gbw
Number of atoms                         ...     12
Number of basis functions               ...    168
Max core memory                         ...   2500 MB

Electric properties:
Dipole moment                           ... YES
Quadrupole moment                       ...  NO
Static polarizability (Dipole/Dipole)   ...  NO
Static polarizability (Dipole/Quad.)    ...  NO
Static polarizability (Quad./Quad.)     ...  NO
Static polarizability (Velocity)        ...  NO
Static hyperpolarizability              ...  NO

Atomic electric properties:
Dipole moment                           ...  NO
Quadrupole moment                       ...  NO
Static polarizability                   ...  NO

Choice of electric origin               ... Center of mass
Position of electric origin             ...    -0.000000    -0.000000    -0.000000

General magnetic properties:
Magnetizability                         ...  NO

EPR properties:
g-Tensor (aka g-matrix)                 ...  NO
Zero-Field splitting spin-orbit         ...  NO
Zero-field splitting spin-spin          ...  NO
Hyperfine couplings                     ...  NO (   0 nuclei)
Quadrupole couplings                    ...  NO (   0 nuclei)
Contact density                         ...  NO (   0 nuclei)

NMR properties:
Chemical shifts                         ...  NO (   0 nuclei)
Spin-rotation constants                 ...  NO (   0 nuclei)
Spin-spin couplings                     ...  NO (   0 nuclei,    0 pairs)

Choice of magnetic origin               ... GIAO
Position of magnetic origin             ...     0.000000     0.000000     0.000000

Properties with geometric perturbations:
SCF Hessian                             ...  NO
IR spectrum                             ...  NO
VCD spectrum                            ...  NO
X-ray spectroscopy properties:
SCF XES/XAS/RIXS spectra                ...  NO

SCF SOC stabilization energy            ...  NO
Diagonal Born-Oppenheimer correction    ...  NO

-------------
DIPOLE MOMENT
-------------

Method             : SCF
Type of density    : Electron Density
Multiplicity       :   1
Irrep              :   0
Energy             :  -297.6265916682941111 Eh
Basis              : AO
                                X                 Y                 Z
Electronic contribution:      0.025934861       0.461330962      -0.592406922
Nuclear contribution   :     -0.000000000      -0.000000000      -0.000000000
                        -----------------------------------------
Total Dipole Moment    :      0.025934861       0.461330962      -0.592406922
                        -----------------------------------------
Magnitude (a.u.)       :      0.751295438
Magnitude (Debye)      :      1.909641242



--------------------
Rotational spectrum 
--------------------
 
Rotational constants in cm-1:             0.093470             0.044128             0.034679 
Rotational constants in MHz :          2802.146780          1322.934283          1039.646670 

Dipole components along the rotational axes: 
x,y,z [a.u.] :     0.668208     0.057380    -0.338602 
x,y,z [Debye]:     1.698449     0.145848    -0.860657 

 

Dipole moment calculation done in   0.1 sec 

Maximum memory used throughout the entire PROP-calculation: 12.7 MB

--------------------------------
SUGGESTED CITATIONS FOR THIS RUN
--------------------------------

Below you find a list of papers that are relevant to this ORCA run
We neither can nor want to force you to cite these papers, but we appreciate if you do
You receive ORCA, which is the product of decades of hard work by many enthusiastic individuals, for free
The only thing we kindly ask in return is that you cite our papers,
We deeply appreciate it, if you show your appreciation for ORCA by not just citing the generic ORCA reference.

Please note that relegating all ORCA citations to the supporting information does *not* help us.
SI sections are not indexed - citations you put there will not count into any citation statistics
But we need these citations in order to attract the funding resources that allow us to do what we are doing

Therefore, if you are a happy ORCA user, please consider citing a few of the papers listed below in the main body of your paper

In addition to the list printed below, the program has created the file random3_nn2.00.bibtex that contains the list in bibtex format
You can import this file easily into all common literature databanks and citation aid programs

It goes without saying that in many instances, there are alternative algorithms to achieve similar
results as the ones you have gotten from ORCA. It is, of course, also the case that in some instances
ORCA just re-implements algorithms worked out by others. We are fully aware of that and we are also
fully appreciative of our colleagues work. Hence this citation list should not be read as indicating
that the listed papers, which are focused on our own work, are the only ones worth citing. It simply
meant to make it easier for users to cite ORCA specific papers. It is not a substitute for doing your
own literature research and citing the relevant literature in a scientifically appropriate manner.

List of essential papers. We consider these as the minimum necessary citations

  1. Neese, F.
     Software update: the ORCA program system, version 6.0
     WIRES Comput. Molec. Sci. 2025 15(1), e70019
     doi.org/10.1002/wcms.70019

List of papers to cite with high priority. The work reported in these papers was absolutely
necessary for this run to complete.
Our perspective: the developers of density functionals and basis sets usually get cited in chemistry papers
Good! But without the algorithms to do something with them, the functionals or basis sets would not do anything.
Hence, in our opinion, the algorithm design and method developments papers are equally worthy of getting cited

  1. Neese, F.
     An improvement of the resolution of the identity approximation for the formation of the Coulomb matrix
     J. Comp. Chem. 2003 24(14), 1740-1747
     doi.org/10.1002/jcc.10318
  2. Grimme, S.; Antony, J.; Ehrlich, S.; Krieg, H.
     A consistent and accurate ab initio parametrization of density functional dispersion correction (DFT-D) for the 94 elements H-Pu
     J. Chem. Phys. 2010 132 , 154104
     doi.org/10.1063/1.3382344
  3. Grimme, S.; Ehrlich, S.; Goerigk, L.
     Effect of the damping function in dispersion corrected density functional theory
     J. Comput. Chem. 2011 32(7), 1456-1465
     doi.org/10.1002/jcc.21759
  4. Helmich-Paris, B.
     A trust-region augmented Hessian implementation for restricted and unrestricted Hartree–Fock and Kohn–Sham methods
     J. Chem. Phys. 2021 154 , 164104
     doi.org/10.1063/5.0040798
  5. Neese, F.
     The SHARK Integral Generation and Digestion System
     J. Comp. Chem. 2022 44(3), 381
     doi.org/10.1002/jcc.26942

List of suggested additional citations. These are papers that are important in the 'surrounding' of 
of this run, or papers that preceded the highly important papers. If you like your results we are grateful for a citation.

  1. Neese, F.
     The ORCA program system
     WIRES Comput. Molec. Sci. 2012 2(1), 73-78
     doi.org/10.1002/wcms.81
  2. Neese, F.
     Software update: the ORCA program system, version 4.0
     WIRES Comput. Molec. Sci. 2018 8(1), 1-6
     doi.org/10.1002/wcms.1327
  3. Neese, F.; Wennmohs, F.; Becker, U.; Riplinger, C.
     The ORCA quantum chemistry program package
     J. Chem. Phys. 2020 152(22), 224108
     doi.org/10.1063/5.0004608
  4. Neese, F.
     Software update: The ORCA program system—Version 5.0
     WIRES Comput. Molec. Sci. 2022 12(1), e1606
     doi.org/10.1002/wcms.1606

List of optional additional citations

  1. Neese, F.
     Approximate second-order SCF convergence for spin unrestricted wavefunctions
     Chem. Phys. Lett. 2000 325(1-3), 93-98
     doi.org/10.1016/s0009-2614(00)00662-x

Timings for individual modules:

Sum of individual times          ...     1748.477 sec (=  29.141 min)
Startup calculation              ...      210.263 sec (=   3.504 min)  12.0 %
SCF iterations                   ...     1237.941 sec (=  20.632 min)  70.8 %
Property calculations            ...        0.757 sec (=   0.013 min)   0.0 %
SCF Gradient evaluation          ...      298.793 sec (=   4.980 min)  17.1 %
Geometry relaxation              ...        0.723 sec (=   0.012 min)   0.0 %
                             ****ORCA TERMINATED NORMALLY****
TOTAL RUN TIME: 0 days 0 hours 30 minutes 52 seconds 732 msec
