
                                 *****************
                                 * O   R   C   A *
                                 *****************

                                            #,                                       
                                            ###                                      
                                            ####                                     
                                            #####                                    
                                            ######                                   
                                           ########,                                 
                                     ,,################,,,,,                         
                               ,,#################################,,                 
                          ,,##########################################,,             
                       ,#########################################, ''#####,          
                    ,#############################################,,   '####,        
                  ,##################################################,,,,####,       
                ,###########''''           ''''###############################       
              ,#####''   ,,,,##########,,,,          '''####'''          '####       
            ,##' ,,,,###########################,,,                        '##       
           ' ,,###''''                  '''############,,,                           
         ,,##''                                '''############,,,,        ,,,,,,###''
      ,#''                                            '''#######################'''  
     '                                                          ''''####''''         
             ,#######,   #######,   ,#######,      ##                                
            ,#'     '#,  ##    ##  ,#'     '#,    #''#        ,####,    ,#,          
            ##       ##  ##   ,#'  ##            #'  '#       #'       ,# #          
            ##       ##  #######   ##           ,######,      #####,      #          
            '#,     ,#'  ##    ##  '#,     ,#' ,#      #,     #,   #      #          
             '#######'   ##     ##  '#######'  #'      '#     '####' #    #          



                #########################################################
                #                        -***-                          #
                #          Department of theory and spectroscopy        #
                #                                                       #
                #                      Frank Neese                      #
                #                                                       #
                #     Directorship, Architecture, Infrastructure        #
                #                    SHARK, DRIVERS                     #
                #        Core code/Algorithms in most modules           #
                #                                                       #
                #        Max Planck Institute fuer Kohlenforschung      #
                #                Kaiser Wilhelm Platz 1                 #
                #                 D-45470 Muelheim/Ruhr                 #
                #                      Germany                          #
                #                                                       #
                #                  All rights reserved                  #
                #                        -***-                          #
                #########################################################


                         Program Version 6.1.1  -  RELEASE   -
                                (GIT: $487d211c$)
                          ($2025-11-21 10:33:24 +0100$)
                                                                         
                                  - NO-DMRG VERSION -                    
                                                                         


 With contributions from (in alphabetic order):
[Max-Planck-Institut fuer Kohlenforschung]                               
  Daniel Aravena         : Magnetic Suceptibility                        
  Michael Atanasov       : Ab Initio Ligand Field Theory (pilot matlab implementation)
  Alexander A. Auer      : GIAO ZORA, VPT2 properties, NMR spectrum      
  Ute Becker             : All parallelization in ORCA, NUMFREQ, NUMCALC 
  Giovanni Bistoni       : ED, misc. LED, open-shell LED, HFLD           
  Dmytro Bykov           : pre 5.0 version of the SCF Hessian            
  Marcos Casanova-Páez   : Triplet and SCS-CIS(D). UHF-(DLPNO)-IP/EA/STEOM-CCSD. UHF-CVS-IP/STEOM-CCSD   
  Vijay G. Chilkuri      : MRCI spin determinant printing, contributions to CSF-ICE 
  Pauline Colinet        : FMM embedding                                 
  Dipayan Datta          : RHF DLPNO-CCSD density                        
  Achintya Kumar Dutta   : EOM-CC, STEOM-CC                              
  Nicolas Foglia         : Exact transition moments, OPA infrastructure, MCD improvements    
  Dmitry Ganyushin       : Spin-Orbit,Spin-Spin,Magnetic field MRCI      
  Miquel Garcia-Rates    : C-PCM and meta-GGA Hessian, CCSD/C-PCM, Gaussian charge scheme 
  Tiago L. C. Gouveia    : GS-ROHF, GS-ROCIS                             
  Yang Guo               : DLPNO-NEVPT2, F12-NEVPT2, CIM, IAO-localization        
  Andreas Hansen         : Spin unrestricted coupled pair/coupled cluster methods 
  Ingolf Harden          : AUTO-CI MPn and infrastructure                
  Benjamin Helmich-Paris : MC-RPA, TRAH-(SCF,CASSCF), AVAS, COSX integrals, SCF dyn. polar., MC-PDFT, srDFT 
  Lee Huntington         : MR-EOM, pCC                                   
  Robert Izsak           : Overlap fitted RIJCOSX, COSX-SCS-MP3, EOM     
  Riya Kayal             : Wick's Theorem for AUTO-CI, AUTO-CI UHF-CCSDT 
  Emily Kempfer          : AUTO-CI RHF CISDT and CCSDT, approximate NEVPT4
  Christian Kollmar      : KDIIS, OOCD, Brueckner-CCSD(T), CCSD density, CASPT2, CASPT2-K, improved NEVPT2 
  Axel Koslowski         : Symmetry handling                             
  Simone Kossmann        : meta-GGA functionals, TD-DFT gradient, OOMP2, (MP2 Hessian; deprecated post 5.0) 
  Lucas Lang             : DCDCAS, Hyperfine gauge corrections, ICE-SOC+SSC
  Marvin Lechner         : AUTO-CI (C++ implementation), FIC-MRCC        
  Spencer Leger          : CASSCF response                               
  Dagmar Lenk            : GEPOL surface, SMD, ORCA-2-JSON               
  Dimitrios Liakos       : Extrapolation schemes; Compound Job, Property file
  Dimitrios Manganas     : Further ROCIS development; embedding schemes. LFT, Crystal Embedding 
  Dimitrios Pantazis     : SARC Basis sets                               
  Anastasios Papadopoulos: AUTO-CI, single reference methods and gradients 
  Taras Petrenko         : pre 6.0 DFT Hessian and TD-DFT gradient,  ECA, NRVS 
  Petra Pikulova         : Analytic Raman intensities                    
  Peter Pinski           : DLPNO-MP2, DLPNO-MP2 Gradient                 
  Shashank Vittal Rao    : ES-AILFT, MagRelax                            
  Christoph Reimann      : Effective Core Potentials                     
  Marius Retegan         : Local ZFS, SOC                                
  Christoph Riplinger    : Optimizer, TS searches, QM/MM, DLPNO-CCSD(T), (RO)-DLPNO pert. Triples 
  Michael Roemelt        : Original ROCIS implementation, recursive CI coupling coefficients
  Masaaki Saitow         : Open-shell DLPNO-CCSD energy and density      
  Barbara Sandhoefer     : DKH picture change effects                    
  Yorick L. A. Schmerwitz: GMF and freeze-and-release deltaSCF, NEB S-IDPP initial path                    
  Kantharuban Sivalingam : CASSCF convergence/infrastructure, NEVPT2, NEVPT3, NEVPT4(SD), FIC-MRCI and CEPA variants
  Bernardo de Souza      : ESD, SOC TD-DFT                               
  Georgi L. Stoychev     : AutoAux, RI-MP2 NMR, DLPNO-MP2 response, X2C  
  Van Anh Tran           : RI-MP2 g-tensors                              
  Willem Van den Heuvel  : Paramagnetic NMR                              
  Zikuan Wang            : NOTCH, Electric field optimization            
  Frank Wennmohs         : Technical directorship and infrastructure     
  Hang Xu                : AUTO-CI-Response properties                   
                                                                         
[FACCTs GmbH]                                                            
  Markus Bursch, Nicolas Foglia, Miquel Garcia-Rates, Ingolf Harden, Hagen Neugebauer, Anastasios Papadopoulos, 
  Christoph Riplinger, Bernardo de Souza, Georgi L. Stoychev                                                    
                                                                 
  APM, various basis sets, CI-OPT, improved COSX, DLPNO-Multilevel,           
  DOCKER, DRACO, updates on ESD, Fragmentator, GOAT, IRC, LR-CPCM, L-BFGS, MBIS, meta-GGA TD-DFT gradient, ML-optimized integration grids, 
  MM, NACMEs, nearIR, NEB, NEB-TS, NL-DFT gradient (VV10), 2- and 3-layer-ONIOM, interface openCOSMO-RS, QMMM,   
  Crystal-QMMM, RESP, rigid body optimization, SF, symmetry and pop. for TD-DFT, various functionals, SOLVATOR                                   
                                                                         
[Other institutions]                                                     
  V. Asgeirsson          : NEB                                           
  Christoph Bannwarth    : sTDA-DFT, sTD-DFT, PBEh-3c, B97-3c, D3        
  Giovanni Bistoni       : ETS/NOCV, ADLD/ADEX, COVALED                  
  Martin Brehm           : Molecular dynamics                            
  Ronald Cardenas        : ETS/NOCV                                      
  Martina Colucci        : COVALED                                       
  Sebastian Ehlert       : rSCAN, r2SCAN, r2SCAN-3c, D4, dhf basis sets  
  Marvin Friede          : D4 for Fr, Ra, Ac-Lr                          
  Lars Goerigk           : TD-DFT with DH, B97 family of functionals     
  Stefan Grimme          : VdW corrections, initial TS optimization, DFT functionals, gCP, sTDA/sTD-DF 
  Waldemar Hujo          : DFT-NL                                        
  H. Jonsson             : NEB                                           
  Holger Kruse           : gCP                                           
  Marcel Mueller         : wB97X-3c, vDZP basis set                      
  Hagen Neugebauer       : wr2SCAN, Native XTB                           
  Gianluca Regni         : ADLD/ADEX                                     
  Tobias Risthaus        : pre 6.0 range-separated hybrid DFT and stability analysis
  Lukas Wittmann         : regularized MP2, r2SCAN double-hybrids, wr2SCAN        
                                                                         
We gratefully acknowledge several colleagues who have allowed us to      
interface, adapt or use parts of their codes:                            
  Ed Valeev, F. Pavosevic, A. Kumar             : LibInt (2-el integral package), F12 methods 
  Garnet Chan, S. Sharma, J. Yang, R. Olivares  : DMRG                   
  Ulf Ekstrom                                   : XCFun DFT Library      
  Mihaly Kallay                                 : mrcc  (arbitrary order and MRCC methods)
  Frank Weinhold                                : gennbo (NPA and NBO analysis)           
  Simon Mueller                                 : openCOSMO-RS                            
  Christopher J. Cramer and Donald G. Truhlar   : smd solvation model                     
  S Lehtola, MJT Oliveira, MAL Marques          : LibXC Library                           
  Liviu Ungur et al                             : ANISO software                          


 Your calculation uses the libint2 library for the computation of 2-el integrals
 For citations please refer to: http://libint.valeyev.net

 Your ORCA version has been built with support for libXC version: 7.0.0
 For citations please refer to: https://libxc.gitlab.io

 This ORCA versions uses:
   CBLAS   interface :  Fast vector & matrix operations
   LAPACKE interface :  Fast linear algebra routines
   SCALAPACK package :  Parallel linear algebra routines
   Shared memory     :  Shared parallel matrices
   BLAS/LAPACK       :  OpenBLAS 0.3.29  USE64BITINT DYNAMIC_ARCH NO_AFFINITY Zen SINGLE_THREADED
        Core in use  :  Zen
   Copyright (c) 2011-2014, The OpenBLAS Project


  ***********************************
  * Starting time: Thu Apr 23 17:24:33 2026
  * Host name:     vmi3233575
  * Process ID:    1366089
  * Working dir.:  /root/b12_scan/jobs/icosahedron_nn1.70_perturb0
  ***********************************

NOTE: MaxCore=2500 MB was set to SCF,MP2,MDCI,CIPSI,MRCI,RASCI and CIS
      => If you want to overwrite this, your respective input block should be placed after the MaxCore statement
Your calculation utilizes the atom-pairwise dispersion correction
with the Becke-Johnson damping scheme (D3BJ)


================================================================================

----- Orbital basis set information -----
Your calculation utilizes the basis: def2-SVP
   F. Weigend and R. Ahlrichs, Phys. Chem. Chem. Phys. 7, 3297 (2005).

----- AuxJ basis set information -----
Your calculation utilizes the auxiliary basis: def2/J
   H-Rn: F. Weigend, Phys. Chem. Chem. Phys. 8, 1057 (2006).
   Fr-Lr: K. Eichkorn, F. Weigend, O. Treutler, R. Ahlrichs; Theor. Chem. Acc. 97, 119 (1997).

================================================================================
                                        WARNINGS
                       Please study these warnings very carefully!
================================================================================


WARNING: Geometry Optimization
  ===> : Switching off AutoStart
         For restart on a previous wavefunction, please use MOREAD

================================================================================
                                       INPUT FILE
================================================================================
NAME = icosahedron_nn1.70_perturb0.inp
|  1> ! BP86 def2-SVP def2/J RI Opt TightSCF D3BJ
|  2> ! SlowConv
|  3> 
|  4> %pal nprocs 8 end
|  5> %maxcore 2500
|  6> 
|  7> %geom
|  8>   MaxIter 300
|  9> end
| 10> 
| 11> * xyz 0 1
| 12> B      0.01885953     -0.86981573     -1.27926549
| 13> B     -0.83426498     -1.45567930      0.05423926
| 14> B     -1.17972888      0.14206214     -0.95556029
| 15> B     -0.18981322     -0.94349117      1.38152779
| 16> B     -1.19875462      1.34251014     -0.18688664
| 17> B      1.26548879     -0.08163885     -0.89744502
| 18> B      0.06174458      1.00637701     -1.39460909
| 19> B      1.05496952     -1.47510809      0.05272651
| 20> B     -1.23980836      0.01410184      0.73847511
| 21> B     -0.13825881      0.78134113      1.40835816
| 22> B      0.69855727      1.34395255     -0.02388375
| 23> B      1.45645573      0.03219887      0.90330591
| 24> *
| 25> 
| 26>                          ****END OF INPUT****
================================================================================

                       *****************************
                       * Geometry Optimization Run *
                       *****************************

Geometry optimization settings:
Update method            Update   .... BFGS
Choice of coordinates    CoordSys .... (2022) Redundant Internals
Initial Hessian          InHess   .... Almloef's Model
Max. no of cycles        MaxIter  .... 300

Convergence Tolerances:
Energy Change            TolE     ....  5.0000e-06 Eh
Max. Gradient            TolMAXG  ....  3.0000e-04 Eh/bohr
RMS Gradient             TolRMSG  ....  1.0000e-04 Eh/bohr
Max. Displacement        TolMAXD  ....  4.0000e-03 bohr
RMS Displacement         TolRMSD  ....  2.0000e-03 bohr
Strict Convergence                .... False

------------------------------------------------------------------------------
                        ORCA OPTIMIZATION COORDINATE SETUP
------------------------------------------------------------------------------

The optimization will be done in redundant internal coordinates (2022)
Making redundant internal coordinates   ...  (2022 redundants) done
Evaluating the initial hessian          ...  (Almloef) done
Evaluating the coordinates              ...  done
Calculating the B-matrix                .... done
Calculating the G-matrix                .... done
The number of degrees of freedom        ....  390

    -----------------------------------------------------------------
                    Redundant Internal Coordinates


    -----------------------------------------------------------------
         Definition                    Initial Value    Approx d2E/dq
    -----------------------------------------------------------------
      1. B(B   1,B   0)                  1.6880         0.280516   
      2. B(B   2,B   0)                  1.6017         0.385206   
      3. B(B   2,B   1)                  1.9214         0.118999   
      4. B(B   3,B   1)                  1.5618         0.445873   
      5. B(B   4,B   2)                  1.4256         0.735525   
      6. B(B   5,B   0)                  1.5235         0.513288   
      7. B(B   6,B   5)                  1.6970         0.271336   
      8. B(B   6,B   4)                  1.7778         0.201708   
      9. B(B   6,B   2)                  1.5751         0.424617   
     10. B(B   6,B   0)                  1.8802         0.138437   
     11. B(B   7,B   5)                  1.6997         0.268723   
     12. B(B   7,B   3)                  1.8968         0.130263   
     13. B(B   7,B   1)                  1.8893         0.133880   
     14. B(B   7,B   0)                  1.7928         0.190873   
     15. B(B   8,B   1)                  1.6712         0.298360   
     16. B(B   8,B   4)                  1.6195         0.360816   
     17. B(B   8,B   3)                  1.5598         0.449222   
     18. B(B   8,B   2)                  1.6999         0.268479   
     19. B(B   9,B   8)                  1.5003         0.559042   
     20. B(B   9,B   4)                  1.9961         0.090448   
     21. B(B   9,B   3)                  1.7258         0.244123   
     22. B(B  10,B   9)                  1.7516         0.222055   
     23. B(B  10,B   6)                  1.5487         0.467980   
     24. B(B  10,B   5)                  1.7655         0.211037   
     25. B(B  10,B   4)                  1.9043         0.126718   
     26. B(B  11,B  10)                  1.7762         0.202890   
     27. B(B  11,B   9)                  1.8329         0.164742   
     28. B(B  11,B   7)                  1.7767         0.202499   
     29. B(B  11,B   5)                  1.8144         0.176292   
     30. B(B  11,B   3)                  1.9725         0.098625   
     31. A(B   1,B   0,B   6)          113.9742         0.303310   
     32. A(B   1,B   0,B   5)          113.2739         0.377305   
     33. A(B   1,B   0,B   2)           71.4211         0.359169   
     34. A(B   2,B   0,B   5)          103.5826         0.398761   
     35. A(B   2,B   0,B   7)          119.7115         0.336622   
     36. A(B   5,B   0,B   6)           58.6999         0.334716   
     37. A(B   2,B   0,B   6)           53.0621         0.319259   
     38. A(B   5,B   0,B   7)           61.0248         0.353244   
     39. A(B   6,B   0,B   7)          111.6723         0.285424   
     40. A(B   1,B   0,B   7)           65.6672         0.319470   
     41. A(B   0,B   1,B   3)          110.4258         0.368262   
     42. A(B   7,B   1,B   8)          104.5974         0.304682   
     43. A(B   2,B   1,B   8)           55.9593         0.299006   
     44. A(B   0,B   1,B   8)           98.0968         0.343990   
     45. A(B   0,B   1,B   2)           52.1987         0.296095   
     46. A(B   2,B   1,B   7)          100.8313         0.264170   
     47. A(B   2,B   1,B   3)          104.3662         0.318996   
     48. A(B   3,B   1,B   7)           65.8863         0.325213   
     49. A(B   0,B   1,B   7)           59.8380         0.301692   
     50. A(B   3,B   1,B   8)           57.5729         0.372187   
     51. A(B   0,B   2,B   6)           72.5731         0.385746   
     52. A(B   0,B   2,B   1)           56.3802         0.311507   
     53. A(B   6,B   2,B   8)          110.2998         0.362464   
     54. A(B   4,B   2,B   8)           61.6787         0.398673   
     55. A(B   0,B   2,B   4)          130.6140         0.425039   
     56. A(B   0,B   2,B   8)          100.3872         0.356500   
     57. A(B   1,B   2,B   6)          117.4561         0.316467   
     58. A(B   1,B   2,B   8)           54.5515         0.294049   
     59. A(B   4,B   2,B   6)           72.4672         0.432530   
     60. A(B   1,B   2,B   4)          114.7870         0.346586   
     61. A(B   1,B   3,B   9)          110.6887         0.359615   
     62. A(B   7,B   3,B   9)          105.7476         0.293833   
     63. A(B   9,B   3,B  11)           58.9677         0.281332   
     64. A(B   8,B   3,B  11)           99.1023         0.309799   
     65. A(B   7,B   3,B  11)           54.6253         0.255843   
     66. A(B   1,B   3,B  11)          107.4909         0.309425   
     67. A(B   1,B   3,B   8)           64.7363         0.399670   
     68. A(B   8,B   3,B   9)           54.0519         0.360074   
     69. A(B   7,B   3,B   8)          108.9665         0.324151   
     70. A(B   1,B   3,B   7)           65.3880         0.323753   
     71. A(B   6,B   4,B   9)           96.4922         0.269627   
     72. A(B   2,B   4,B   9)          100.7832         0.331079   
     73. A(B   9,B   4,B  10)           53.3066         0.251588   
     74. A(B   8,B   4,B  10)           88.6803         0.311378   
     75. A(B   2,B   4,B   8)           67.5239         0.420100   
     76. A(B   6,B   4,B   8)          104.5403         0.336051   
     77. A(B   8,B   4,B   9)           47.6393         0.295038   
     78. A(B   6,B   4,B  10)           49.5984         0.283952   
     79. A(B   2,B   4,B  10)           91.9195         0.350277   
     80. A(B   2,B   4,B   6)           57.6572         0.379266   
     81. A(B  10,B   5,B  11)           59.4730         0.301240   
     82. A(B   7,B   5,B  11)           60.6367         0.313172   
     83. A(B   6,B   5,B  11)          108.9766         0.313663   
     84. A(B   0,B   5,B  11)          111.5498         0.348534   
     85. A(B   0,B   5,B   6)           71.2072         0.375142   
     86. A(B   6,B   5,B  10)           53.0925         0.323000   
     87. A(B   0,B   5,B  10)          106.2002         0.359319   
     88. A(B   6,B   5,B   7)          126.9803         0.336154   
     89. A(B   0,B   5,B   7)           67.3324         0.374516   
     90. A(B   7,B   5,B  10)          110.2203         0.322488   
     91. A(B   4,B   6,B   5)          115.1591         0.320617   
     92. A(B   2,B   6,B   5)           97.2156         0.363120   
     93. A(B   0,B   6,B   5)           50.0930         0.301702   
     94. A(B   5,B   6,B  10)           65.7186         0.369219   
     95. A(B   4,B   6,B  10)           69.4545         0.351029   
     96. A(B   2,B   6,B  10)          101.3613         0.399112   
     97. A(B   2,B   6,B   4)           49.8756         0.345325   
     98. A(B   0,B   6,B  10)           99.9386         0.329630   
     99. A(B   0,B   6,B   4)           97.5172         0.287894   
    100. A(B   0,B   6,B   2)           54.3648         0.324392   
    101. A(B   0,B   7,B   1)           54.4948         0.283942   
    102. A(B   5,B   7,B  11)           62.8776         0.320315   
    103. A(B   3,B   7,B  11)           64.8580         0.285347   
    104. A(B   0,B   7,B  11)          101.5285         0.303082   
    105. A(B   3,B   7,B   5)          104.0716         0.298333   
    106. A(B   1,B   7,B   5)           96.6537         0.299635   
    107. A(B   0,B   7,B   5)           51.6428         0.317240   
    108. A(B   1,B   7,B   3)           48.7256         0.267793   
    109. A(B   1,B   7,B  11)          102.5243         0.286568   
    110. A(B   0,B   7,B   3)           92.6705         0.282737   
    111. A(B   3,B   8,B   4)          136.2272         0.385137   
    112. A(B   2,B   8,B   4)           50.7974         0.352569   
    113. A(B   1,B   8,B   4)          118.7715         0.358940   
    114. A(B   2,B   8,B   3)          115.6745         0.365972   
    115. A(B   1,B   8,B   3)           57.6908         0.372667   
    116. A(B   1,B   8,B   2)           69.4891         0.341471   
    117. A(B   4,B   8,B   9)           79.4573         0.400165   
    118. A(B   3,B   8,B   9)           68.6308         0.415989   
    119. A(B   2,B   8,B   9)          112.3657         0.380028   
    120. A(B   1,B   8,B   9)          117.0267         0.387063   
    121. A(B  10,B   9,B  11)           59.3563         0.300432   
    122. A(B   8,B   9,B  11)          107.8648         0.349572   
    123. A(B   4,B   9,B  11)          110.9126         0.261538   
    124. A(B   3,B   9,B  11)           67.2452         0.305015   
    125. A(B   8,B   9,B  10)           98.6233         0.367787   
    126. A(B   4,B   9,B  10)           60.6623         0.273599   
    127. A(B   3,B   9,B  10)          108.8187         0.320115   
    128. A(B   4,B   9,B   8)           52.9035         0.316503   
    129. A(B   3,B   9,B   8)           57.3173         0.373830   
    130. A(B   3,B   9,B   4)          104.6361         0.277601   
    131. A(B   9,B  10,B  11)           62.6001         0.310637   
    132. A(B   5,B  10,B  11)           61.6352         0.308099   
    133. A(B   4,B  10,B  11)          117.9863         0.284210   
    134. A(B   6,B  10,B  11)          118.4579         0.351376   
    135. A(B   6,B  10,B   9)          117.2105         0.356791   
    136. A(B   5,B  10,B   9)          107.3761         0.312621   
    137. A(B   4,B  10,B   9)           66.0310         0.288239   
    138. A(B   5,B  10,B   6)           61.1889         0.353724   
    139. A(B   4,B  10,B   6)           60.9470         0.324860   
    140. A(B   4,B  10,B   5)          106.0801         0.285957   
    141. A(B   9,B  11,B  10)           58.0437         0.296156   
    142. A(B   7,B  11,B  10)          106.2731         0.306061   
    143. A(B   5,B  11,B  10)           58.8917         0.299357   
    144. A(B   3,B  11,B  10)           97.8013         0.273444   
    145. A(B   7,B  11,B   9)          106.3833         0.296066   
    146. A(B   5,B  11,B   9)          101.9786         0.289671   
    147. A(B   3,B  11,B   9)           53.7871         0.264951   
    148. A(B   5,B  11,B   7)           56.4857         0.299266   
    149. A(B   3,B  11,B   7)           60.5167         0.273364   
    150. A(B   3,B  11,B   5)           96.9925         0.267670   
    151. D(B   7,B   1,B   0,B   2)   -136.5404         0.010000   
    152. D(B   2,B   1,B   0,B   5)     97.1881         0.010000   
    153. D(B   3,B   1,B   0,B   7)     43.8923         0.010000   
    154. D(B   3,B   1,B   0,B   5)      4.5400         0.010000   
    155. D(B   2,B   1,B   0,B   6)     32.5076         0.010000   
    156. D(B   3,B   1,B   0,B   6)    -60.1405         0.010000   
    157. D(B   3,B   1,B   0,B   2)    -92.6481         0.010000   
    158. D(B   2,B   1,B   0,B   7)    136.5404         0.010000   
    159. D(B   6,B   2,B   0,B   1)    142.0948         0.010000   
    160. D(B   0,B   2,B   1,B   7)     37.2650         0.010000   
    161. D(B   0,B   2,B   1,B   8)    137.6587         0.010000   
    162. D(B   1,B   2,B   0,B   6)   -142.0948         0.010000   
    163. D(B   4,B   2,B   1,B   3)    -18.7343         0.010000   
    164. D(B   4,B   2,B   1,B   0)   -123.6420         0.010000   
    165. D(B   4,B   2,B   0,B   6)    -46.7554         0.010000   
    166. D(B   1,B   2,B   0,B   7)    -46.1875         0.010000   
    167. D(B   1,B   2,B   0,B   5)   -110.3427         0.010000   
    168. D(B   6,B   2,B   1,B   0)    -41.3426         0.010000   
    169. D(B   0,B   2,B   1,B   3)    104.9076         0.010000   
    170. D(B   4,B   2,B   0,B   7)     49.1519         0.010000   
    171. D(B   4,B   2,B   0,B   5)    -15.0033         0.010000   
    172. D(B   4,B   2,B   1,B   8)     14.0167         0.010000   
    173. D(B   4,B   2,B   0,B   1)     95.3394         0.010000   
    174. D(B   4,B   2,B   1,B   7)    -86.3770         0.010000   
    175. D(B   8,B   3,B   1,B   7)    127.6971         0.012175   
    176. D(B   7,B   3,B   1,B   2)    -95.6174         0.012175   
    177. D(B   9,B   3,B   1,B   0)     57.3490         0.012175   
    178. D(B   7,B   3,B   1,B   0)    -41.0523         0.012175   
    179. D(B   8,B   3,B   1,B   2)     32.0796         0.012175   
    180. D(B   7,B   3,B   1,B   8)   -127.6971         0.012175   
    181. D(B   8,B   3,B   1,B   0)     86.6448         0.012175   
    182. D(B   9,B   3,B   1,B   2)      2.7838         0.012175   
    183. D(B   8,B   4,B   2,B   6)   -125.7019         0.033536   
    184. D(B   9,B   4,B   2,B   0)    -44.1050         0.033536   
    185. D(B   6,B   4,B   2,B   0)     46.7909         0.033536   
    186. D(B   8,B   4,B   2,B   0)    -78.9110         0.033536   
    187. D(B   6,B   4,B   2,B   1)    112.7497         0.033536   
    188. D(B   9,B   4,B   2,B   1)     21.8538         0.033536   
    189. D(B   6,B   4,B   2,B   8)    125.7019         0.033536   
    190. D(B   8,B   4,B   2,B   1)    -12.9522         0.033536   
    191. D(B   6,B   5,B   0,B   7)   -146.1732         0.015993   
    192. D(B   7,B   5,B   0,B   2)    116.6836         0.015993   
    193. D(B   7,B   5,B   0,B   6)    146.1732         0.015993   
    194. D(B  10,B   5,B   0,B   1)    -64.2554         0.015993   
    195. D(B  10,B   5,B   0,B   2)     11.0959         0.015993   
    196. D(B   7,B   5,B   0,B   1)     41.3323         0.015993   
    197. D(B   6,B   5,B   0,B   2)    -29.4897         0.015993   
    198. D(B   6,B   5,B   0,B   1)   -104.8409         0.015993   
    199. D(B   4,B   6,B   2,B   0)   -144.5562         0.011106   
    200. D(B   0,B   6,B   2,B   4)    144.5562         0.011106   
    201. D(B   4,B   6,B   0,B   2)     26.5684         0.010000   
    202. D(B   2,B   6,B   0,B   7)   -111.6221         0.010000   
    203. D(B   4,B   6,B   2,B   1)   -109.3492         0.011106   
    204. D(B   5,B   6,B   0,B   1)    103.6337         0.010000   
    205. D(B   4,B   6,B   0,B   7)    -85.0537         0.010000   
    206. D(B   4,B   6,B   0,B   1)    -13.0241         0.010000   
    207. D(B   0,B   6,B   2,B   1)     35.2070         0.011106   
    208. D(B   2,B   6,B   0,B   5)   -143.2262         0.010000   
    209. D(B   4,B   6,B   2,B   8)    -49.6586         0.011106   
    210. D(B   0,B   6,B   2,B   8)     94.8976         0.011106   
    211. D(B   4,B   6,B   0,B   5)   -116.6578         0.010000   
    212. D(B   2,B   6,B   0,B   1)    -39.5925         0.010000   
    213. D(B   4,B   6,B   5,B   0)     78.2056         0.010000   
    214. D(B   5,B   6,B   2,B   0)    -27.5736         0.011106   
    215. D(B   2,B   6,B   5,B  10)    -99.2488         0.010000   
    216. D(B   2,B   6,B   5,B   7)    -10.6491         0.010000   
    217. D(B   2,B   6,B   5,B   0)     29.3694         0.010000   
    218. D(B   0,B   6,B   5,B  10)   -128.6182         0.010000   
    219. D(B   0,B   6,B   5,B   7)    -40.0185         0.010000   
    220. D(B   5,B   6,B   4,B   2)    -77.6209         0.010000   
    221. D(B   0,B   6,B   4,B   9)     70.2890         0.010000   
    222. D(B   2,B   6,B   4,B   8)     50.8239         0.010000   
    223. D(B   0,B   6,B   4,B  10)     97.8429         0.010000   
    224. D(B   0,B   6,B   5,B  11)   -107.0542         0.010000   
    225. D(B   2,B   6,B   4,B  10)    126.2282         0.010000   
    226. D(B   0,B   6,B   4,B   8)     22.4386         0.010000   
    227. D(B   0,B   6,B   4,B   2)    -28.3853         0.010000   
    228. D(B   2,B   6,B   5,B  11)    -77.6849         0.010000   
    229. D(B   5,B   6,B   2,B   1)      7.6334         0.011106   
    230. D(B   2,B   6,B   4,B   9)     98.6743         0.010000   
    231. D(B   3,B   7,B   5,B   0)    -82.1195         0.010000   
    232. D(B   1,B   7,B   5,B  10)     66.6205         0.010000   
    233. D(B   1,B   7,B   5,B   6)      8.2052         0.010000   
    234. D(B   1,B   7,B   5,B   0)    -33.0728         0.010000   
    235. D(B   0,B   7,B   5,B  10)     99.6933         0.010000   
    236. D(B   0,B   7,B   5,B   6)     41.2780         0.010000   
    237. D(B   5,B   7,B   3,B   1)     86.4989         0.010000   
    238. D(B   1,B   7,B   3,B   9)   -105.9367         0.010000   
    239. D(B   1,B   7,B   3,B   8)    -49.1701         0.010000   
    240. D(B   0,B   7,B   3,B  11)   -101.4855         0.010000   
    241. D(B   0,B   7,B   3,B   1)     35.4579         0.010000   
    242. D(B   5,B   7,B   1,B   2)     -1.8847         0.010000   
    243. D(B   0,B   7,B   1,B   8)    -90.9736         0.010000   
    244. D(B   3,B   7,B   1,B   2)    101.0188         0.010000   
    245. D(B   3,B   7,B   1,B   0)    134.6160         0.010000   
    246. D(B   5,B   7,B   1,B   0)     31.7125         0.010000   
    247. D(B   0,B   7,B   1,B   3)   -134.6160         0.010000   
    248. D(B   0,B   7,B   1,B   2)    -33.5972         0.010000   
    249. D(B   5,B   7,B   0,B   1)   -138.2538         0.010000   
    250. D(B   3,B   7,B   1,B   8)     43.6424         0.010000   
    251. D(B   3,B   7,B   0,B   6)     75.0849         0.010000   
    252. D(B   1,B   7,B   3,B  11)   -136.9434         0.010000   
    253. D(B   3,B   7,B   0,B   5)    105.8717         0.010000   
    254. D(B   0,B   7,B   3,B   9)    -70.4788         0.010000   
    255. D(B   3,B   7,B   0,B   2)     16.2678         0.010000   
    256. D(B   0,B   7,B   5,B  11)    133.7658         0.010000   
    257. D(B   3,B   7,B   0,B   1)    -32.3822         0.010000   
    258. D(B   1,B   7,B   0,B   2)     48.6500         0.010000   
    259. D(B   1,B   7,B   5,B  11)    100.6930         0.010000   
    260. D(B   1,B   7,B   0,B   5)    138.2538         0.010000   
    261. D(B   0,B   7,B   3,B   8)    -13.7122         0.010000   
    262. D(B   1,B   7,B   0,B   6)    107.4671         0.010000   
    263. D(B   3,B   8,B   2,B   4)   -129.9265         0.010000   
    264. D(B   3,B   8,B   2,B   1)     35.6084         0.010000   
    265. D(B   3,B   8,B   2,B   0)      0.8423         0.010000   
    266. D(B   1,B   8,B   2,B   4)   -165.5349         0.010000   
    267. D(B   1,B   8,B   2,B   0)    -34.7661         0.010000   
    268. D(B   4,B   8,B   1,B   2)    -12.7577         0.010000   
    269. D(B   3,B   8,B   1,B   0)   -109.1019         0.010000   
    270. D(B   2,B   8,B   1,B   0)     32.5173         0.010000   
    271. D(B   2,B   8,B   1,B   7)     93.3486         0.010000   
    272. D(B   1,B   8,B   2,B   6)   -109.8836         0.010000   
    273. D(B   2,B   8,B   1,B   3)    141.6192         0.010000   
    274. D(B   3,B   8,B   1,B   2)   -141.6192         0.010000   
    275. D(B   4,B   8,B   1,B   0)     19.7596         0.010000   
    276. D(B   3,B   8,B   2,B   6)    -74.2753         0.010000   
    277. D(B   3,B   8,B   1,B   7)    -48.2707         0.010000   
    278. D(B   3,B   8,B   4,B   2)     87.5252         0.010000   
    279. D(B   2,B   8,B   4,B   9)   -130.6379         0.010000   
    280. D(B   2,B   8,B   4,B   6)    -45.1361         0.010000   
    281. D(B   1,B   8,B   4,B  10)    -77.1442         0.010000   
    282. D(B   1,B   8,B   4,B   6)    -29.6558         0.010000   
    283. D(B   1,B   8,B   4,B   2)     15.4802         0.010000   
    284. D(B   4,B   8,B   3,B   1)    -99.3875         0.012349   
    285. D(B   2,B   8,B   3,B  11)     64.9449         0.012349   
    286. D(B   2,B   8,B   3,B   9)    105.3833         0.012349   
    287. D(B   2,B   8,B   3,B   7)      9.3402         0.012349   
    288. D(B   1,B   8,B   4,B   9)   -115.1577         0.010000   
    289. D(B   2,B   8,B   3,B   1)    -40.1827         0.012349   
    290. D(B   1,B   8,B   3,B  11)    105.1276         0.012349   
    291. D(B   1,B   8,B   3,B   9)    145.5660         0.012349   
    292. D(B   2,B   8,B   4,B  10)    -92.6244         0.010000   
    293. D(B   1,B   8,B   3,B   7)     49.5230         0.012349   
    294. D(B   4,B   8,B   2,B   0)    130.7688         0.010000   
    295. D(B  10,B   9,B   8,B   2)     -3.1258         0.018968   
    296. D(B   4,B   9,B   8,B   3)    149.4889         0.018968   
    297. D(B   4,B   9,B   8,B   2)     39.4847         0.018968   
    298. D(B   4,B   9,B   8,B   1)    117.0433         0.018968   
    299. D(B   3,B   9,B   8,B   4)   -149.4889         0.018968   
    300. D(B   3,B   9,B   8,B   2)   -110.0042         0.018968   
    301. D(B   3,B   9,B   8,B   1)    -32.4456         0.018968   
    302. D(B  10,B   9,B   4,B   2)     84.2951         0.010000   
    303. D(B   8,B   9,B   4,B  10)   -129.8403         0.010000   
    304. D(B   8,B   9,B   4,B   6)   -103.7798         0.010000   
    305. D(B   8,B   9,B   4,B   2)    -45.5452         0.010000   
    306. D(B   3,B   9,B   4,B  10)   -103.6308         0.010000   
    307. D(B   3,B   9,B   4,B   8)     26.2095         0.010000   
    308. D(B   3,B   9,B   4,B   6)    -77.5704         0.010000   
    309. D(B   3,B   9,B   4,B   2)    -19.3357         0.010000   
    310. D(B  10,B   9,B   3,B   1)    -55.1203         0.010000   
    311. D(B   8,B   9,B   3,B  11)    131.6311         0.010000   
    312. D(B   8,B   9,B   3,B   7)    102.2777         0.010000   
    313. D(B   8,B   9,B   3,B   1)     33.1355         0.010000   
    314. D(B   4,B   9,B   3,B  11)    106.8888         0.010000   
    315. D(B   4,B   9,B   3,B   8)    -24.7423         0.010000   
    316. D(B  10,B   9,B   8,B   1)     74.4329         0.018968   
    317. D(B   4,B   9,B   3,B   7)     77.5354         0.010000   
    318. D(B   4,B   9,B   3,B   1)      8.3932         0.010000   
    319. D(B   6,B  10,B   9,B   3)     62.2924         0.010000   
    320. D(B   5,B  10,B   9,B   8)    -62.0067         0.010000   
    321. D(B   5,B  10,B   9,B   4)   -100.2821         0.010000   
    322. D(B   5,B  10,B   9,B   3)     -3.6966         0.010000   
    323. D(B   4,B  10,B   9,B  11)    143.9872         0.010000   
    324. D(B   4,B  10,B   9,B   8)     38.2754         0.010000   
    325. D(B   4,B  10,B   9,B   3)     96.5854         0.010000   
    326. D(B   9,B  10,B   6,B   2)     -2.9049         0.013355   
    327. D(B   5,B  10,B   6,B   4)    131.8475         0.013355   
    328. D(B   5,B  10,B   6,B   2)     92.8604         0.013355   
    329. D(B   5,B  10,B   6,B   0)     37.4792         0.013355   
    330. D(B   4,B  10,B   6,B   2)    -38.9871         0.013355   
    331. D(B   4,B  10,B   6,B   0)    -94.3683         0.013355   
    332. D(B   9,B  10,B   5,B   0)     61.6294         0.010000   
    333. D(B   6,B  10,B   5,B  11)   -156.2033         0.010000   
    334. D(B   6,B  10,B   5,B   7)   -121.6735         0.010000   
    335. D(B   6,B  10,B   5,B   0)    -50.3767         0.010000   
    336. D(B   4,B  10,B   6,B   5)   -131.8475         0.013355   
    337. D(B   4,B  10,B   5,B  11)   -113.5387         0.010000   
    338. D(B   4,B  10,B   5,B   7)    -79.0089         0.010000   
    339. D(B   4,B  10,B   5,B   6)     42.6646         0.010000   
    340. D(B   9,B  10,B   6,B   0)    -58.2861         0.013355   
    341. D(B   4,B  10,B   5,B   0)     -7.7121         0.010000   
    342. D(B   9,B  10,B   4,B   2)   -102.0336         0.010000   
    343. D(B   6,B  10,B   4,B   9)    145.0265         0.010000   
    344. D(B   6,B  10,B   4,B   8)    110.4493         0.010000   
    345. D(B   6,B  10,B   4,B   2)     42.9929         0.010000   
    346. D(B   5,B  10,B   4,B   9)    102.2384         0.010000   
    347. D(B   5,B  10,B   4,B   8)     67.6612         0.010000   
    348. D(B   5,B  10,B   9,B  11)     43.7051         0.010000   
    349. D(B   5,B  10,B   4,B   6)    -42.7881         0.010000   
    350. D(B   5,B  10,B   4,B   2)      0.2048         0.010000   
    351. D(B   7,B  11,B  10,B   4)     61.9772         0.010000   
    352. D(B   5,B  11,B  10,B   6)     23.7118         0.010000   
    353. D(B   5,B  11,B  10,B   4)     93.9881         0.010000   
    354. D(B   3,B  11,B  10,B   9)     37.9747         0.010000   
    355. D(B   3,B  11,B  10,B   5)    -93.4881         0.010000   
    356. D(B   3,B  11,B  10,B   4)      0.5000         0.010000   
    357. D(B   7,B  11,B   9,B   3)     31.6684         0.010000   
    358. D(B   5,B  11,B   9,B   8)     48.5625         0.010000   
    359. D(B   5,B  11,B   9,B   4)     -7.7099         0.010000   
    360. D(B   5,B  11,B   9,B   3)     89.9364         0.010000   
    361. D(B   3,B  11,B   9,B  10)   -130.9244         0.010000   
    362. D(B   3,B  11,B   9,B   8)    -41.3738         0.010000   
    363. D(B   3,B  11,B   9,B   4)    -97.6463         0.010000   
    364. D(B   9,B  11,B   7,B   1)      2.5920         0.010000   
    365. D(B   5,B  11,B   7,B   3)   -122.8310         0.010000   
    366. D(B   5,B  11,B   7,B   1)    -91.1215         0.010000   
    367. D(B   5,B  11,B   7,B   0)    -35.3070         0.010000   
    368. D(B   3,B  11,B   7,B   5)    122.8310         0.010000   
    369. D(B   3,B  11,B   7,B   1)     31.7095         0.010000   
    370. D(B   3,B  11,B   7,B   0)     87.5240         0.010000   
    371. D(B   9,B  11,B   5,B   0)    -56.0848         0.010000   
    372. D(B   9,B  11,B   7,B   0)     58.4065         0.010000   
    373. D(B   7,B  11,B   5,B  10)    142.3882         0.010000   
    374. D(B   7,B  11,B   5,B   6)    122.4396         0.010000   
    375. D(B   7,B  11,B   5,B   0)     45.7640         0.010000   
    376. D(B   3,B  11,B   5,B  10)     94.9170         0.010000   
    377. D(B   3,B  11,B   5,B   7)    -47.4712         0.010000   
    378. D(B   3,B  11,B   5,B   6)     74.9683         0.010000   
    379. D(B   3,B  11,B   5,B   0)     -1.7073         0.010000   
    380. D(B   5,B  11,B   9,B  10)    -40.9880         0.010000   
    381. D(B   9,B  11,B   3,B   1)    104.0459         0.010000   
    382. D(B   7,B  11,B   3,B   9)   -144.6466         0.010000   
    383. D(B   7,B  11,B   3,B   8)   -106.8541         0.010000   
    384. D(B   3,B  11,B  10,B   6)    -69.7763         0.010000   
    385. D(B   7,B  11,B   3,B   1)    -40.6007         0.010000   
    386. D(B   5,B  11,B   3,B   9)    -99.7504         0.010000   
    387. D(B   5,B  11,B   3,B   8)    -61.9578         0.010000   
    388. D(B   5,B  11,B  10,B   9)    131.4628         0.010000   
    389. D(B   5,B  11,B   3,B   7)     44.8963         0.010000   
    390. D(B   5,B  11,B   3,B   1)      4.2956         0.010000   
    -----------------------------------------------------------------

Number of atoms                         .... 12
Number of degrees of freedom            .... 390


         *************************************************************
         *                GEOMETRY OPTIMIZATION CYCLE   1            *
         *************************************************************
---------------------------------
CARTESIAN COORDINATES (ANGSTROEM)
---------------------------------
  B      0.018860   -0.869816   -1.279265
  B     -0.834265   -1.455679    0.054239
  B     -1.179729    0.142062   -0.955560
  B     -0.189813   -0.943491    1.381528
  B     -1.198755    1.342510   -0.186887
  B      1.265489   -0.081639   -0.897445
  B      0.061745    1.006377   -1.394609
  B      1.054970   -1.475108    0.052727
  B     -1.239808    0.014102    0.738475
  B     -0.138259    0.781341    1.408358
  B      0.698557    1.343953   -0.023884
  B      1.456456    0.032199    0.903306

----------------------------
CARTESIAN COORDINATES (A.U.)
----------------------------
  NO LB      ZA    FRAG     MASS         X           Y           Z
   0 B     5.0000    0    10.810    0.035639   -1.643714   -2.417461
   1 B     5.0000    0    10.810   -1.576532   -2.750835    0.102497
   2 B     5.0000    0    10.810   -2.229364    0.268459   -1.805747
   3 B     5.0000    0    10.810   -0.358695   -1.782940    2.610709
   4 B     5.0000    0    10.810   -2.265318    2.536976   -0.353165
   5 B     5.0000    0    10.810    2.391427   -0.154275   -1.695925
   6 B     5.0000    0    10.810    0.116680    1.901777   -2.635429
   7 B     5.0000    0    10.810    1.993603   -2.787550    0.099639
   8 B     5.0000    0    10.810   -2.342898    0.026649    1.395516
   9 B     5.0000    0    10.810   -0.261271    1.476521    2.661411
  10 B     5.0000    0    10.810    1.320082    2.539702   -0.045134
  11 B     5.0000    0    10.810    2.752302    0.060847    1.707001

--------------------------------
INTERNAL COORDINATES (ANGSTROEM)
--------------------------------
 B      0   0   0     0.000000000000     0.00000000     0.00000000
 B      1   0   0     1.687984736450     0.00000000     0.00000000
 B      1   2   0     1.601654162698    71.42108296     0.00000000
 B      2   1   3     1.561841731210   110.42579678   267.35190277
 B      3   1   2     1.425586391521   130.61401576    95.33936420
 B      1   2   3     1.523513760150   113.27387643    97.18812072
 B      3   1   2     1.575138214624    72.57313013   142.09478394
 B      6   1   2     1.699676681693    67.33241114    41.33231447
 B      4   2   1     1.559804768578    64.73630333    86.64479476
 B      9   4   2     1.500270255621    68.63076041   214.43396650
 B      7   3   1     1.548668978533   101.36126702   265.83883381
 B     11   7   3     1.776172417947   118.45790625    69.04145989

---------------------------
INTERNAL COORDINATES (A.U.)
---------------------------
 B      0   0   0     0.000000000000     0.00000000     0.00000000
 B      1   0   0     3.189828870130     0.00000000     0.00000000
 B      1   2   0     3.026687728755    71.42108296     0.00000000
 B      2   1   3     2.951453136517   110.42579678   267.35190277
 B      3   1   2     2.693967860220   130.61401576    95.33936420
 B      1   2   3     2.879023767944   113.27387643    97.18812072
 B      3   1   2     2.976579848713    72.57313013   142.09478394
 B      6   1   2     3.211923444611    67.33241114    41.33231447
 B      4   2   1     2.947603834997    64.73630333    86.64479476
 B      9   4   2     2.835099909992    68.63076041   214.43396650
 B      7   3   1     2.926560241526   101.36126702   265.83883381
 B     11   7   3     3.356479436544   118.45790625    69.04145989

---------------------
BASIS SET INFORMATION
---------------------
There are 1 groups of distinct atoms

 Group   1 Type B   : 7s4p1d contracted to 3s2p1d pattern {511/31/1}

Atom   0B    basis set group =>   1
Atom   1B    basis set group =>   1
Atom   2B    basis set group =>   1
Atom   3B    basis set group =>   1
Atom   4B    basis set group =>   1
Atom   5B    basis set group =>   1
Atom   6B    basis set group =>   1
Atom   7B    basis set group =>   1
Atom   8B    basis set group =>   1
Atom   9B    basis set group =>   1
Atom  10B    basis set group =>   1
Atom  11B    basis set group =>   1
---------------------------------
AUXILIARY/J BASIS SET INFORMATION
---------------------------------
There are 1 groups of distinct atoms

 Group   1 Type B   : 12s5p4d2f1g contracted to 6s4p3d1f1g pattern {711111/2111/211/2/1}

Atom   0B    basis set group =>   1
Atom   1B    basis set group =>   1
Atom   2B    basis set group =>   1
Atom   3B    basis set group =>   1
Atom   4B    basis set group =>   1
Atom   5B    basis set group =>   1
Atom   6B    basis set group =>   1
Atom   7B    basis set group =>   1
Atom   8B    basis set group =>   1
Atom   9B    basis set group =>   1
Atom  10B    basis set group =>   1
Atom  11B    basis set group =>   1


           ************************************************************
           *        Program running with 8 parallel MPI-processes     *
           *              working on a common directory               *
           ************************************************************
------------------------------------------------------------------------------
                             ORCA STARTUP CALCULATIONS
                           -- RI-GTO INTEGRALS CHOSEN --
------------------------------------------------------------------------------
------------------------------------------------------------------------------
                   ___                                                        
                  /   \      - P O W E R E D   B Y -                         
                 /     \                                                     
                 |  |  |   _    _      __       _____    __    __             
                 |  |  |  | |  | |    /  \     |  _  \  |  |  /  |          
                  \  \/   | |  | |   /    \    | | | |  |  | /  /          
                 / \  \   | |__| |  /  /\  \   | |_| |  |  |/  /          
                |  |  |   |  __  | /  /__\  \  |    /   |      \           
                |  |  |   | |  | | |   __   |  |    \   |  |\   \          
                \     /   | |  | | |  |  |  |  | |\  \  |  | \   \       
                 \___/    |_|  |_| |__|  |__|  |_| \__\ |__|  \__/        
                                                                              
                      - O R C A' S   B I G   F R I E N D -                    
                                      &                                       
                       - I N T E G R A L  F E E D E R -                       
                                                                              
 v1 FN, 2020, v2 2021, v3 2022-2024                                           
------------------------------------------------------------------------------


----------------------
SHARK INTEGRAL PACKAGE
----------------------

Number of atoms                             ...     12
Number of basis functions                   ...    168
Number of shells                            ...     72
Maximum angular momentum                    ...      2
Integral batch strategy                     ... SHARK/LIBINT Hybrid
RI-J (if used) integral strategy            ... SPLIT-RIJ (Revised 2003 algorithm where possible)
Printlevel                                  ...      1
Contraction scheme used                     ... SEGMENTED contraction
Prescreening option                         ... SCHWARTZ
   Thresh                                   ... 2.500e-11
   Tcut                                     ... 2.500e-12
   Tpresel                                  ... 2.500e-12 
Coulomb Range Separation                    ... NOT USED
Exchange Range Separation                   ... NOT USED
Multipole approximations                    ... NOT USED
Finite Nucleus Model                        ... NOT USED
CABS basis                                  ... NOT available
Auxiliary Coulomb fitting basis             ... AVAILABLE
   # of basis functions in Aux-J            ...    588
   # of shells in Aux-J                     ...    180
   Maximum angular momentum in Aux-J        ...      4
Auxiliary J/K fitting basis                 ... NOT available
Auxiliary Correlation fitting basis         ... NOT available
Auxiliary 'external' fitting basis          ... NOT available

Checking pre-screening integrals            ... done (  0.0 sec) Dimension = 72
   => SHARK Basis and OBASIS are compatible. Storing Pre-screening
Shell pair information
Shell pair cut-off parameter TPreSel        ...   2.5e-12
Total number of shell pairs                 ...      2628
Shell pairs after pre-screening             ...      2593
Total number of primitive shell pairs       ...     10596
Primitive shell pairs kept                  ...      8230
          la=0 lb=0:    631 shell pairs
          la=1 lb=0:    864 shell pairs
          la=1 lb=1:    300 shell pairs
          la=2 lb=0:    432 shell pairs
          la=2 lb=1:    288 shell pairs
          la=2 lb=2:     78 shell pairs

Checking whether 4 symmetric matrices of dimension 168 fit in memory
:Max Core in MB      =   2500.00
 MB in use           =      6.97
 MB left             =   2493.03
 MB needed           =      0.43
 Data fit in memory  = YES
Calculating RI/J V-Matrix + Cholesky decomp.... done (  0.0 sec)
Calculating Nuclear repulsion               ... done (  0.0 sec) ENN=    399.139983208655 Eh

Diagonalization of the overlap matrix:
Smallest eigenvalue                        ... 6.618e-05
Time for diagonalization                   ...    0.004 sec
Threshold for overlap eigenvalues          ... 1.000e-07
Number of eigenvalues below threshold      ... 0
Time for construction of square roots      ...    0.005 sec
Total time needed                          ...    0.012 sec

-------------------
DFT GRID GENERATION
-------------------

General Integration Accuracy     IntAcc      ... 4.388
Radial Grid Type                 RadialGrid  ... OptM3 with GC (2021)
Angular Grid (max. ang.)         AngularGrid ... 4 (Lebedev-302)
Angular grid pruning method      GridPruning ... 4 (adaptive)
Weight generation scheme         WeightScheme... mBecke (2022)
Basis function cutoff            BFCut       ... 1.0000e-11
Integration weight cutoff        WCut        ... 1.0000e-14
Partially contracted basis set               ... off
Rotationally invariant grid construction     ... off
Angular grids for H and He will be reduced by one unit

Total number of grid points                  ...    69532
Total number of batches                      ...     1092
Average number of points per batch           ...       63
Average number of grid points per atom       ...     5794
Grids setup in   0.8 sec
Initializing property integral containers    ... done (  0.0 sec)

SHARK setup successfully completed in   1.0 seconds

Maximum memory used throughout the entire STARTUP-calculation: 19.7 MB


           ************************************************************
           *        Program running with 8 parallel MPI-processes     *
           *              working on a common directory               *
           ************************************************************
-------------------------------------------------------------------------------
                                 ORCA GUESS
                   Start orbitals & Density for SCF / CASSCF
-------------------------------------------------------------------------------

------------
SCF SETTINGS
------------
Hamiltonian:
 Density Functional     Method          .... DFT(GTOs)
 Exchange Functional    Exchange        .... B88
   X-Alpha parameter    XAlpha          ....  0.666667
   Becke's b parameter  XBeta           ....  0.004200
 Correlation Functional Correlation     .... P86
 LDA part of GGA corr.  LDAOpt          .... PW91-LDA
 Gradients option       PostSCFGGA      .... off
   NL short-range parameter             ....  4.400000
 RI-approximation to the Coulomb term is turned on
   Number of AuxJ basis functions       .... 588


General Settings:
 Integral files         IntName         .... icosahedron_nn1.70_perturb0
 Hartree-Fock type      HFTyp           .... RHF
 Total Charge           Charge          ....    0
 Multiplicity           Mult            ....    1
 Number of Electrons    NEL             ....   60
 Basis Dimension        Dim             ....  168
 Nuclear Repulsion      ENuc            ....    399.1399832087 Eh

Convergence Acceleration:
 AO-DIIS                CNVDIIS         .... on
   Start iteration      DIISMaxIt       ....     0
   Startup error        DIISStart       ....  0.200000
   # of expansion vecs  DIISMaxEq       ....     5
   Bias factor          DIISBfac        ....   1.050
   Max. coefficient     DIISMaxC        ....  10.000
 MO-DIIS                CNVKDIIS        .... off
 Trust-Rad. Augm. Hess. CNVTRAH         .... auto
   Auto Start mean grad. ratio tolernc. ....  1.125000
   Auto Start start iteration           ....    50
   Auto Start num. interpolation iter.  ....    10
   Max. Number of Micro iterations      ....    24
   Max. Number of Macro iterations      .... Maxiter - #DIIS iter
   Number of Davidson start vectors     ....     2
   Converg. threshold    (grad. norm)   ....   1.000e-05
   Grad. Scal. Fac. for Micro threshold ....   0.100
   Minimum threshold for Micro iter.    ....   1.000e-02
   NR start threshold (gradient norm)   ....   1.000e-04
   Initial trust radius                 ....   0.400
   Minimum AH scaling param. (alpha)    ....   1.000
   Maximum AH scaling param. (alpha)    .... 1000.000
   Quad. conv. algorithm                .... NR
   White noise on init. David. guess    .... on
   Maximum white noise                  ....   0.010
   Pseudo random numbers                .... off
   Inactive MOs                         .... canonical
   Orbital update algorithm             .... Taylor
   Preconditioner                       .... Diag
   Full preconditioner red. dimension   ....   250
 SOSCF                 CNVSOSCF           .... on
   Start iteration     SOSCFMaxIt         ....   150
   Startup grad/error  SOSCFStart         ....  0.001000
   Hessian update      SOSCFHessUp        .... L-BFGS
   Autom. constraints  SOSCFAutoConstrain .... off
 Level Shifting         CNVShift        .... on
   Level shift para.    LevelShift      ....    0.2500
   Turn off err/grad.   ShiftErr        ....    0.0000
 Zerner damping         CNVZerner       .... off
 Static damping         CNVDamp         .... on
   Fraction old density DampFac         ....    0.8500
   Max. Damping (<1)    DampMax         ....    0.9800
   Min. Damping (>=0)   DampMin         ....    0.0000
   Turn off err/grad.   DampErr         ....    0.0300

SCF Procedure:
 Maximum # iterations   MaxIter         ....   125
 SCF integral mode      SCFMode         .... Direct
   Integral package                     .... SHARK and LIBINT hybrid scheme
 Reset frequency        DirectResetFreq ....    20
 Integral Threshold     Thresh          ....  2.500e-11 Eh
 Primitive CutOff       TCut            ....  2.500e-12 Eh

Convergence Tolerance:
 Convergence Check Mode ConvCheckMode   .... Total+1el-Energy
 Convergence forced     ConvForced      .... 0
 Energy Change          TolE            ....  1.000e-08 Eh
 1-El. energy change                    ....  1.000e-05 Eh
 Orbital Gradient       TolG            ....  1.000e-05
 Orbital Rotation angle TolX            ....  1.000e-05
 DIIS Error             TolErr          ....  5.000e-07

------------------------------
INITIAL GUESS: MODEL POTENTIAL
------------------------------
Loading Hartree-Fock densities                     ... done
Calculating cut-offs                               ... done
Initializing the effective Hamiltonian             ... done
Setting up the integral package (SHARK)            ... done
Starting the Coulomb interaction                   ... done (   0.0 sec)
Making the grid                                    ... done (   0.2 sec)
Mapping shells                                     ... done
Starting the XC term evaluation                    ... done (   0.0 sec)
  promolecular density results
     # of electrons  =     59.995254608
     EX              =    -46.275522368
     EC              =     -2.080662976
     EX+EC           =    -48.356185345
Transforming the Hamiltonian                       ... done (   0.0 sec)
Diagonalizing the Hamiltonian                      ... done (   0.0 sec)
Back transforming the eigenvectors                 ... done (   0.0 sec)
Now organizing SCF variables                       ... done
                      ------------------
                      INITIAL GUESS DONE (   0.3 sec)
                      ------------------
             **** ENERGY FILE WAS UPDATED (icosahedron_nn1.70_perturb0.en.tmp) ****
Finished Guess after   0.7 sec
Maximum memory used throughout the entire GUESS-calculation: 9.8 MB


           ************************************************************
           *        Program running with 8 parallel MPI-processes     *
           *              working on a common directory               *
           ************************************************************

-------------------------------------------------------------------------------------------
                                      ORCA LEAN-SCF
                              memory conserving SCF solver
-------------------------------------------------------------------------------------------

----------------------------------------D-I-I-S--------------------------------------------
Iteration    Energy (Eh)           Delta-E    RMSDP     MaxDP     DIISErr   Damp  Time(sec)
-------------------------------------------------------------------------------------------
               ***  Starting incremental Fock matrix formation  ***
    1    -296.6566451391112764     0.00e+00  4.09e-02  4.83e-01  1.95e-01  0.850   0.4
Warning: op=0 Small HOMO/LUMO gap (  -0.057) - skipping pre-diagonalization
         Will do a full diagonalization
    2    -296.9359665870509275    -2.79e-01  3.41e-02  4.40e-01  1.30e-01  0.850   0.5
                               ***Turning on AO-DIIS***
    3    -297.0671954835706288    -1.31e-01  2.46e-02  4.84e-01  7.92e-02  0.850   0.5
    4    -297.1380271776051245    -7.08e-02  2.02e-02  4.23e-01  5.57e-02  0.850   0.6
    5    -297.1890815213138808    -5.11e-02  1.73e-02  3.49e-01  4.03e-02  0.850   0.6
    6    -297.2290813923563633    -4.00e-02  1.51e-02  2.89e-01  3.11e-02  0.850   0.5
    7    -297.2621151519879845    -3.30e-02  1.36e-02  2.47e-01  2.56e-02  0.850   0.5
    8    -297.2900601501636970    -2.79e-02  8.15e-02  1.40e+00  2.24e-02  0.000   0.5
    9    -297.4433818031563419    -1.53e-01  7.76e-03  6.72e-02  1.50e-02  0.000   0.4
   10    -297.4451199043845122    -1.74e-03  5.80e-03  5.61e-02  9.60e-03  0.000   0.4
   11    -297.4464503693046140    -1.33e-03  5.32e-03  5.36e-02  5.22e-03  0.000   1.7
   12    -297.4471435801781922    -6.93e-04  5.19e-03  5.19e-02  2.82e-03  0.000   0.6
                              *** Initializing SOSCF ***
---------------------------------------S-O-S-C-F--------------------------------------
Iteration    Energy (Eh)           Delta-E    RMSDP     MaxDP     MaxGrad    Time(sec)
--------------------------------------------------------------------------------------
   13    -297.4476349772108392    -4.91e-04  4.81e-03  4.99e-02  9.92e-04     1.2
               *** Restarting incremental Fock matrix formation ***
   14    -297.4479994481758354    -3.64e-04  9.41e-03  9.63e-02  4.11e-03     0.5
               *** Scaled step length from 0.292649 to 0.200000 ***
   15    -297.4486843497770110    -6.85e-04  4.80e-02  4.84e-01  2.73e-03     0.4
   16    -297.4503604651253568    -1.68e-03  1.78e-02  1.59e-01  2.78e-03     0.5
   17    -297.4502261106659375     1.34e-04  3.22e-03  4.44e-02  4.59e-03     0.4
   18    -297.4506162198876495    -3.90e-04  5.18e-03  5.91e-02  1.56e-03     0.4
   19    -297.4504812227082198     1.35e-04  3.42e-03  3.47e-02  2.76e-03     0.4
   20    -297.4506958072510656    -2.15e-04  4.25e-03  3.80e-02  1.67e-03     0.4
   21    -297.4506692187059684     2.66e-05  2.36e-03  1.98e-02  1.83e-03     0.3
   22    -297.4508475751154606    -1.78e-04  8.40e-04  1.26e-02  4.35e-04     0.4
   23    -297.4508313377269246     1.62e-05  6.48e-04  6.13e-03  1.10e-03     1.1
   24    -297.4508552971699942    -2.40e-05  5.32e-04  4.40e-03  1.16e-04     0.9
   25    -297.4508558640979459    -5.67e-07  3.94e-04  4.82e-03  1.07e-04     0.6
   26    -297.4508567551250167    -8.91e-07  2.53e-04  2.56e-03  2.98e-05     0.8
   27    -297.4508568615839863    -1.06e-07  9.63e-05  1.02e-03  1.53e-05     0.4
   28    -297.4508568826074111    -2.10e-08  2.88e-05  3.58e-04  8.19e-06     0.4
   29    -297.4508568889403364    -6.33e-09  2.28e-05  2.86e-04  3.22e-06     0.7
                 **** Energy Check signals convergence ****

               *****************************************************
               *                     SUCCESS                       *
               *           SCF CONVERGED AFTER  29 CYCLES          *
               *****************************************************

             **** ENERGY FILE WAS UPDATED (icosahedron_nn1.70_perturb0.en.tmp) ****

----------------
TOTAL SCF ENERGY
----------------

Total Energy       :       -297.45085688874661 Eh           -8094.04931 eV

Components:
Nuclear Repulsion  :        399.13998320865500 Eh           10861.15111 eV
Electronic Energy  :       -696.59084009740161 Eh          -18955.20042 eV
One Electron Energy:      -1184.97858691837314 Eh          -32244.90665 eV
Two Electron Energy:        488.38774682097153 Eh           13289.70623 eV

Virial components:
Potential Energy   :       -591.38832977803554 Eh          -16092.49458 eV
Kinetic Energy     :        293.93747288928887 Eh            7998.44527 eV
Virial Ratio       :          2.01195282780696

DFT components:
N(Alpha)           :       30.000101208851 electrons
N(Beta)            :       30.000101208851 electrons
N(Total)           :       60.000202417702 electrons
E(X)               :      -46.653598000127 Eh       
E(C)               :       -2.113288767182 Eh       
E(XC)              :      -48.766886767308 Eh       

---------------
SCF CONVERGENCE
---------------

  Last Energy change         ...    6.3329e-09  Tolerance :   1.0000e-08
  Last MAX-Density change    ...    2.8614e-04  Tolerance :   1.0000e-07
  Last RMS-Density change    ...    2.2778e-05  Tolerance :   5.0000e-09
  Last DIIS Error            ...    9.9159e-04  Tolerance :   5.0000e-07
  Last Orbital Gradient      ...    3.2188e-06  Tolerance :   1.0000e-05
  Last Orbital Rotation      ...    6.2634e-05  Tolerance :   1.0000e-05


----------------
ORBITAL ENERGIES
----------------

  NO   OCC          E(Eh)            E(eV) 
   0   2.0000      -6.606807      -179.7804 
   1   2.0000      -6.604318      -179.7126 
   2   2.0000      -6.598881      -179.5647 
   3   2.0000      -6.597614      -179.5302 
   4   2.0000      -6.592174      -179.3822 
   5   2.0000      -6.591189      -179.3554 
   6   2.0000      -6.586713      -179.2336 
   7   2.0000      -6.585131      -179.1905 
   8   2.0000      -6.578214      -179.0023 
   9   2.0000      -6.577297      -178.9774 
  10   2.0000      -6.576206      -178.9477 
  11   2.0000      -6.573429      -178.8721 
  12   2.0000      -0.792309       -21.5598 
  13   2.0000      -0.648632       -17.6502 
  14   2.0000      -0.633659       -17.2427 
  15   2.0000      -0.602369       -16.3913 
  16   2.0000      -0.494982       -13.4691 
  17   2.0000      -0.462688       -12.5904 
  18   2.0000      -0.454722       -12.3736 
  19   2.0000      -0.446398       -12.1471 
  20   2.0000      -0.430008       -11.7011 
  21   2.0000      -0.363572        -9.8933 
  22   2.0000      -0.346462        -9.4277 
  23   2.0000      -0.338928        -9.2227 
  24   2.0000      -0.316509        -8.6127 
  25   2.0000      -0.297470        -8.0946 
  26   2.0000      -0.253719        -6.9040 
  27   2.0000      -0.240709        -6.5500 
  28   2.0000      -0.218043        -5.9333 
  29   2.0000      -0.164494        -4.4761 
  30   0.0000      -0.168035        -4.5725 
  31   0.0000      -0.157537        -4.2868 
  32   0.0000      -0.148914        -4.0522 
  33   0.0000      -0.127514        -3.4698 
  34   0.0000      -0.112704        -3.0668 
  35   0.0000      -0.102469        -2.7883 
  36   0.0000      -0.082234        -2.2377 
  37   0.0000      -0.066486        -1.8092 
  38   0.0000      -0.038078        -1.0361 
  39   0.0000      -0.001232        -0.0335 
  40   0.0000       0.007826         0.2130 
*Only the first 10 virtual orbitals were printed.

                    ********************************
                    * MULLIKEN POPULATION ANALYSIS *
                    ********************************

-----------------------
MULLIKEN ATOMIC CHARGES
-----------------------
   0 B :    0.064632
   1 B :   -0.210181
   2 B :    0.183476
   3 B :    0.009735
   4 B :   -0.328656
   5 B :    0.140671
   6 B :    0.057047
   7 B :   -0.017859
   8 B :    0.552174
   9 B :   -0.304652
  10 B :    0.006448
  11 B :   -0.152835
Sum of atomic charges:    0.0000000

--------------------------------
MULLIKEN REDUCED ORBITAL CHARGES
--------------------------------
  0 B s       :     2.492560  s :     2.492560
      pz      :     0.673046  p :     2.367728
      px      :     0.868002
      py      :     0.826679
      dz2     :     0.015629  d :     0.075081
      dxz     :     0.016698
      dyz     :     0.014599
      dx2y2   :     0.013814
      dxy     :     0.014340

  1 B s       :     2.915261  s :     2.915261
      pz      :     0.783769  p :     2.228180
      px      :     0.754892
      py      :     0.689519
      dz2     :     0.012950  d :     0.066741
      dxz     :     0.011843
      dyz     :     0.014720
      dx2y2   :     0.014551
      dxy     :     0.012676

  2 B s       :     2.297799  s :     2.297799
      pz      :     0.840013  p :     2.430970
      px      :     0.719784
      py      :     0.871173
      dz2     :     0.019834  d :     0.087755
      dxz     :     0.014820
      dyz     :     0.015516
      dx2y2   :     0.018267
      dxy     :     0.019319

  3 B s       :     2.720910  s :     2.720910
      pz      :     0.677784  p :     2.198653
      px      :     0.724765
      py      :     0.796104
      dz2     :     0.016178  d :     0.070702
      dxz     :     0.014743
      dyz     :     0.015168
      dx2y2   :     0.012099
      dxy     :     0.012514

  4 B s       :     3.337843  s :     3.337843
      pz      :     0.702392  p :     1.920411
      px      :     0.594377
      py      :     0.623643
      dz2     :     0.013282  d :     0.070402
      dxz     :     0.009165
      dyz     :     0.012872
      dx2y2   :     0.019364
      dxy     :     0.015720

  5 B s       :     2.420744  s :     2.420744
      pz      :     0.799865  p :     2.360934
      px      :     0.737520
      py      :     0.823549
      dz2     :     0.015162  d :     0.077651
      dxz     :     0.014240
      dyz     :     0.014112
      dx2y2   :     0.017045
      dxy     :     0.017092

  6 B s       :     2.754385  s :     2.754385
      pz      :     0.654927  p :     2.113904
      px      :     0.786086
      py      :     0.672891
      dz2     :     0.017468  d :     0.074664
      dxz     :     0.016591
      dyz     :     0.015340
      dx2y2   :     0.013225
      dxy     :     0.012040

  7 B s       :     3.139183  s :     3.139183
      pz      :     0.616549  p :     1.819757
      px      :     0.649207
      py      :     0.554001
      dz2     :     0.009999  d :     0.058919
      dxz     :     0.008138
      dyz     :     0.011561
      dx2y2   :     0.015773
      dxy     :     0.013447

  8 B s       :     1.834557  s :     1.834557
      pz      :     0.878534  p :     2.523681
      px      :     0.730579
      py      :     0.914568
      dz2     :     0.020078  d :     0.089588
      dxz     :     0.017019
      dyz     :     0.014087
      dx2y2   :     0.018652
      dxy     :     0.019752

  9 B s       :     3.044222  s :     3.044222
      pz      :     0.717494  p :     2.196244
      px      :     0.777502
      py      :     0.701248
      dz2     :     0.013292  d :     0.064186
      dxz     :     0.015257
      dyz     :     0.013232
      dx2y2   :     0.009742
      dxy     :     0.012663

 10 B s       :     2.583478  s :     2.583478
      pz      :     0.869572  p :     2.338000
      px      :     0.781031
      py      :     0.687398
      dz2     :     0.016463  d :     0.072074
      dxz     :     0.012312
      dyz     :     0.014352
      dx2y2   :     0.015541
      dxy     :     0.013407

 11 B s       :     3.036851  s :     3.036851
      pz      :     0.637316  p :     2.058142
      px      :     0.712380
      py      :     0.708446
      dz2     :     0.011652  d :     0.057842
      dxz     :     0.011513
      dyz     :     0.010022
      dx2y2   :     0.011576
      dxy     :     0.013079



                     *******************************
                     * LOEWDIN POPULATION ANALYSIS *
                     *******************************

----------------------
LOEWDIN ATOMIC CHARGES
----------------------
   0 B :   -0.026983
   1 B :    0.035128
   2 B :   -0.021604
   3 B :    0.031663
   4 B :   -0.031306
   5 B :    0.005135
   6 B :    0.007108
   7 B :   -0.027439
   8 B :   -0.052820
   9 B :   -0.003036
  10 B :    0.058287
  11 B :    0.025867

-------------------------------
LOEWDIN REDUCED ORBITAL CHARGES
-------------------------------
  0 B s       :     2.608037  s :     2.608037
      pz      :     0.669388  p :     2.229386
      px      :     0.847804
      py      :     0.712194
      dz2     :     0.034328  d :     0.189560
      dxz     :     0.044092
      dyz     :     0.030511
      dx2y2   :     0.039822
      dxy     :     0.040806

  1 B s       :     2.593965  s :     2.593965
      pz      :     0.787176  p :     2.201391
      px      :     0.738513
      py      :     0.675702
      dz2     :     0.034927  d :     0.169517
      dxz     :     0.032688
      dyz     :     0.041366
      dx2y2   :     0.036637
      dxy     :     0.023899

  2 B s       :     2.544482  s :     2.544482
      pz      :     0.743244  p :     2.251890
      px      :     0.680814
      py      :     0.827832
      dz2     :     0.052228  d :     0.225232
      dxz     :     0.029482
      dyz     :     0.046459
      dx2y2   :     0.046870
      dxy     :     0.050193

  3 B s       :     2.621293  s :     2.621293
      pz      :     0.696693  p :     2.170974
      px      :     0.715220
      py      :     0.759061
      dz2     :     0.036854  d :     0.176069
      dxz     :     0.038777
      dyz     :     0.031116
      dx2y2   :     0.035445
      dxy     :     0.033878

  4 B s       :     2.692659  s :     2.692659
      pz      :     0.691864  p :     2.162404
      px      :     0.652144
      py      :     0.818397
      dz2     :     0.035654  d :     0.176243
      dxz     :     0.025761
      dyz     :     0.036376
      dx2y2   :     0.047583
      dxy     :     0.030869

  5 B s       :     2.580519  s :     2.580519
      pz      :     0.774528  p :     2.217291
      px      :     0.674899
      py      :     0.767865
      dz2     :     0.041059  d :     0.197055
      dxz     :     0.027245
      dyz     :     0.040071
      dx2y2   :     0.041572
      dxy     :     0.047107

  6 B s       :     2.620614  s :     2.620614
      pz      :     0.719471  p :     2.179772
      px      :     0.781686
      py      :     0.678614
      dz2     :     0.039729  d :     0.192506
      dxz     :     0.045228
      dyz     :     0.031219
      dx2y2   :     0.040447
      dxy     :     0.035883

  7 B s       :     2.782130  s :     2.782130
      pz      :     0.667682  p :     2.100045
      px      :     0.695136
      py      :     0.737227
      dz2     :     0.023749  d :     0.145264
      dxz     :     0.021760
      dyz     :     0.032825
      dx2y2   :     0.041733
      dxy     :     0.025198

  8 B s       :     2.538148  s :     2.538148
      pz      :     0.764070  p :     2.274390
      px      :     0.670844
      py      :     0.839476
      dz2     :     0.057813  d :     0.240283
      dxz     :     0.038163
      dyz     :     0.045946
      dx2y2   :     0.047567
      dxy     :     0.050794

  9 B s       :     2.633338  s :     2.633338
      pz      :     0.698464  p :     2.208020
      px      :     0.780546
      py      :     0.729010
      dz2     :     0.028212  d :     0.161678
      dxz     :     0.042187
      dyz     :     0.027852
      dx2y2   :     0.028336
      dxy     :     0.035092

 10 B s       :     2.595995  s :     2.595995
      pz      :     0.828363  p :     2.168655
      px      :     0.703354
      py      :     0.636937
      dz2     :     0.042660  d :     0.177062
      dxz     :     0.034473
      dyz     :     0.037058
      dx2y2   :     0.036146
      dxy     :     0.026726

 11 B s       :     2.666910  s :     2.666910
      pz      :     0.675354  p :     2.167615
      px      :     0.748136
      py      :     0.744126
      dz2     :     0.030460  d :     0.139608
      dxz     :     0.020947
      dyz     :     0.027494
      dx2y2   :     0.026052
      dxy     :     0.034655



                      *****************************
                      * MAYER POPULATION ANALYSIS *
                      *****************************

  NA   - Mulliken gross atomic population
  ZA   - Total nuclear charge
  QA   - Mulliken gross atomic charge
  VA   - Mayer's total valence
  BVA  - Mayer's bonded valence
  FA   - Mayer's free valence

  ATOM       NA         ZA         QA         VA         BVA        FA
  0 B      4.9354     5.0000     0.0646     4.0862     4.0862     0.0000
  1 B      5.2102     5.0000    -0.2102     4.4586     4.4586     0.0000
  2 B      4.8165     5.0000     0.1835     4.0565     4.0565    -0.0000
  3 B      4.9903     5.0000     0.0097     3.9974     3.9974     0.0000
  4 B      5.3287     5.0000    -0.3287     3.6306     3.6306     0.0000
  5 B      4.8593     5.0000     0.1407     3.9694     3.9694     0.0000
  6 B      4.9430     5.0000     0.0570     4.0915     4.0915     0.0000
  7 B      5.0179     5.0000    -0.0179     3.2930     3.2930    -0.0000
  8 B      4.4478     5.0000     0.5522     3.1855     3.1855     0.0000
  9 B      5.3047     5.0000    -0.3047     4.3244     4.3244     0.0000
 10 B      4.9936     5.0000     0.0064     4.1117     4.1117     0.0000
 11 B      5.1528     5.0000    -0.1528     3.9831     3.9831     0.0000

  Mayer bond orders larger than 0.100000
B(  0-B ,  1-B ) :   0.6808 B(  0-B ,  2-B ) :   0.4079 B(  0-B ,  4-B ) :   0.3667 
B(  0-B ,  5-B ) :   1.0469 B(  0-B ,  6-B ) :   0.4390 B(  0-B ,  7-B ) :   0.2938 
B(  0-B ,  8-B ) :   0.1891 B(  0-B ,  9-B ) :   0.1010 B(  0-B , 10-B ) :   0.2354 
B(  0-B , 11-B ) :   0.2360 B(  1-B ,  2-B ) :   0.5952 B(  1-B ,  3-B ) :   0.8709 
B(  1-B ,  4-B ) :   0.2252 B(  1-B ,  5-B ) :   0.1613 B(  1-B ,  6-B ) :   0.2187 
B(  1-B ,  7-B ) :   0.6067 B(  1-B ,  8-B ) :   0.3812 B(  1-B ,  9-B ) :   0.5199 
B(  1-B , 10-B ) :   0.1020 B(  2-B ,  3-B ) :   0.2404 B(  2-B ,  4-B ) :   0.4885 
B(  2-B ,  5-B ) :   0.1503 B(  2-B ,  6-B ) :   0.7772 B(  2-B ,  7-B ) :   0.1209 
B(  2-B ,  8-B ) :   0.6114 B(  2-B ,  9-B ) :   0.3609 B(  2-B , 11-B ) :   0.2180 
B(  3-B ,  4-B ) :   0.2399 B(  3-B ,  6-B ) :   0.1453 B(  3-B ,  7-B ) :   0.3199 
B(  3-B ,  8-B ) :   0.4019 B(  3-B ,  9-B ) :   0.7170 B(  3-B , 11-B ) :   0.7908 
B(  4-B ,  6-B ) :   0.5684 B(  4-B ,  7-B ) :   0.5050 B(  4-B ,  8-B ) :   0.2142 
B(  4-B ,  9-B ) :   0.4453 B(  4-B , 10-B ) :   0.4629 B(  5-B ,  6-B ) :   0.3151 
B(  5-B ,  7-B ) :   0.3696 B(  5-B ,  8-B ) :   0.2925 B(  5-B , 10-B ) :   0.6827 
[...]
      dyz     :     0.014571
      dx2y2   :     0.010578
      dxy     :     0.011431

 10 B s       :     2.514207  s :     2.514207
      pz      :     0.842628  p :     2.381154
      px      :     0.809170
      py      :     0.729357
      dz2     :     0.013611  d :     0.074137
      dxz     :     0.014046
      dyz     :     0.015757
      dx2y2   :     0.016038
      dxy     :     0.014685

 11 B s       :     2.826056  s :     2.826056
      pz      :     0.707480  p :     2.132423
      px      :     0.666491
      py      :     0.758451
      dz2     :     0.013845  d :     0.068314
      dxz     :     0.014316
      dyz     :     0.012250
      dx2y2   :     0.013007
      dxy     :     0.014896



                     *******************************
                     * LOEWDIN POPULATION ANALYSIS *
                     *******************************

----------------------
LOEWDIN ATOMIC CHARGES
----------------------
   0 B :   -0.044339
   1 B :    0.039212
   2 B :   -0.035027
   3 B :    0.036360
   4 B :   -0.032975
   5 B :    0.036313
   6 B :    0.036629
   7 B :   -0.032673
   8 B :    0.036418
   9 B :   -0.044489
  10 B :    0.039571
  11 B :   -0.035000

-------------------------------
LOEWDIN REDUCED ORBITAL CHARGES
-------------------------------
  0 B s       :     2.674890  s :     2.674890
      pz      :     0.729287  p :     2.197765
      px      :     0.733581
      py      :     0.734896
      dz2     :     0.037746  d :     0.171683
      dxz     :     0.040877
      dyz     :     0.029558
      dx2y2   :     0.030488
      dxy     :     0.033014

  1 B s       :     2.569371  s :     2.569371
      pz      :     0.787348  p :     2.204658
      px      :     0.745020
      py      :     0.672289
      dz2     :     0.034473  d :     0.186759
      dxz     :     0.039971
      dyz     :     0.042569
      dx2y2   :     0.039413
      dxy     :     0.030333

  2 B s       :     2.662812  s :     2.662812
      pz      :     0.733322  p :     2.199003
      px      :     0.725272
      py      :     0.740409
      dz2     :     0.038213  d :     0.173212
      dxz     :     0.028268
      dyz     :     0.035127
      dx2y2   :     0.030709
      dxy     :     0.040895

  3 B s       :     2.572115  s :     2.572115
      pz      :     0.677248  p :     2.204953
      px      :     0.786877
      py      :     0.740828
      dz2     :     0.035250  d :     0.186572
      dxz     :     0.042272
      dyz     :     0.029939
      dx2y2   :     0.039682
      dxy     :     0.039429

  4 B s       :     2.659599  s :     2.659599
      pz      :     0.739642  p :     2.199619
      px      :     0.736412
      py      :     0.723565
      dz2     :     0.028552  d :     0.173758
      dxz     :     0.034368
      dyz     :     0.040738
      dx2y2   :     0.041879
      dxy     :     0.028220

  5 B s       :     2.573744  s :     2.573744
      pz      :     0.745534  p :     2.204086
      px      :     0.672523
      py      :     0.786029
      dz2     :     0.042255  d :     0.185857
      dxz     :     0.031147
      dyz     :     0.039148
      dx2y2   :     0.030799
      dxy     :     0.042507

  6 B s       :     2.572347  s :     2.572347
      pz      :     0.677268  p :     2.204601
      px      :     0.787275
      py      :     0.740057
      dz2     :     0.035205  d :     0.186423
      dxz     :     0.042242
      dyz     :     0.029927
      dx2y2   :     0.039687
      dxy     :     0.039361

  7 B s       :     2.660041  s :     2.660041
      pz      :     0.739764  p :     2.199008
      px      :     0.735827
      py      :     0.723417
      dz2     :     0.028492  d :     0.173623
      dxz     :     0.034382
      dyz     :     0.040694
      dx2y2   :     0.041891
      dxy     :     0.028165

  8 B s       :     2.573261  s :     2.573261
      pz      :     0.746059  p :     2.204128
      px      :     0.672133
      py      :     0.785936
      dz2     :     0.042327  d :     0.186192
      dxz     :     0.031166
      dyz     :     0.039279
      dx2y2   :     0.030855
      dxy     :     0.042566

  9 B s       :     2.675300  s :     2.675300
      pz      :     0.729749  p :     2.197629
      px      :     0.733690
      py      :     0.734191
      dz2     :     0.037726  d :     0.171560
      dxz     :     0.040935
      dyz     :     0.029603
      dx2y2   :     0.030365
      dxy     :     0.032930

 10 B s       :     2.569215  s :     2.569215
      pz      :     0.786015  p :     2.204436
      px      :     0.746161
      py      :     0.672260
      dz2     :     0.034507  d :     0.186778
      dxz     :     0.039992
      dyz     :     0.042519
      dx2y2   :     0.039423
      dxy     :     0.030337

 11 B s       :     2.662214  s :     2.662214
      pz      :     0.732645  p :     2.199440
      px      :     0.724931
      py      :     0.741864
      dz2     :     0.038220  d :     0.173347
      dxz     :     0.028262
      dyz     :     0.035172
      dx2y2   :     0.030751
      dxy     :     0.040942



                      *****************************
                      * MAYER POPULATION ANALYSIS *
                      *****************************

  NA   - Mulliken gross atomic population
  ZA   - Total nuclear charge
  QA   - Mulliken gross atomic charge
  VA   - Mayer's total valence
  BVA  - Mayer's bonded valence
  FA   - Mayer's free valence

  ATOM       NA         ZA         QA         VA         BVA        FA
  0 B      5.0369     5.0000    -0.0369     3.7144     3.7144    -0.0000
  1 B      4.9703     5.0000     0.0297     4.3482     4.3482     0.0000
  2 B      5.0276     5.0000    -0.0276     3.7900     3.7900     0.0000
  3 B      4.9688     5.0000     0.0312     4.3261     4.3261     0.0000
  4 B      5.0237     5.0000    -0.0237     3.8044     3.8044     0.0000
  5 B      4.9733     5.0000     0.0267     4.3267     4.3267    -0.0000
  6 B      4.9692     5.0000     0.0308     4.3260     4.3260    -0.0000
  7 B      5.0237     5.0000    -0.0237     3.8038     3.8038    -0.0000
  8 B      4.9716     5.0000     0.0284     4.3255     4.3255     0.0000
  9 B      5.0386     5.0000    -0.0386     3.7160     3.7160    -0.0000
 10 B      4.9695     5.0000     0.0305     4.3461     4.3461    -0.0000
 11 B      5.0268     5.0000    -0.0268     3.7897     3.7897    -0.0000

  Mayer bond orders larger than 0.100000
B(  0-B ,  1-B ) :   0.8049 B(  0-B ,  2-B ) :   0.2398 B(  0-B ,  3-B ) :   0.1614 
B(  0-B ,  4-B ) :   0.2638 B(  0-B ,  5-B ) :   0.5260 B(  0-B ,  6-B ) :   0.5361 
B(  0-B ,  7-B ) :   0.2432 B(  0-B ,  8-B ) :   0.1616 B(  0-B ,  9-B ) :   0.3414 
B(  0-B , 10-B ) :   0.1711 B(  0-B , 11-B ) :   0.2650 B(  1-B ,  2-B ) :   0.5850 
B(  1-B ,  3-B ) :   0.7009 B(  1-B ,  4-B ) :   0.1580 B(  1-B ,  5-B ) :   0.1447 
B(  1-B ,  6-B ) :   0.1445 B(  1-B ,  7-B ) :   0.5861 B(  1-B ,  8-B ) :   0.7016 
B(  1-B ,  9-B ) :   0.1731 B(  1-B , 10-B ) :   0.1897 B(  1-B , 11-B ) :   0.1596 
B(  2-B ,  3-B ) :   0.1776 B(  2-B ,  4-B ) :   0.2572 B(  2-B ,  5-B ) :   0.1626 
B(  2-B ,  6-B ) :   0.8513 B(  2-B ,  7-B ) :   0.2506 B(  2-B ,  8-B ) :   0.5348 
B(  2-B ,  9-B ) :   0.2681 B(  2-B , 10-B ) :   0.1591 B(  2-B , 11-B ) :   0.3041 
B(  3-B ,  4-B ) :   0.1600 B(  3-B ,  5-B ) :   0.1477 B(  3-B ,  6-B ) :   0.1887 
B(  3-B ,  7-B ) :   0.5437 B(  3-B ,  8-B ) :   0.7161 B(  3-B ,  9-B ) :   0.5349 
B(  3-B , 10-B ) :   0.1445 B(  3-B , 11-B ) :   0.8505 B(  4-B ,  5-B ) :   0.1809 
B(  4-B ,  6-B ) :   0.5431 B(  4-B ,  7-B ) :   0.2962 B(  4-B ,  8-B ) :   0.8606 
B(  4-B ,  9-B ) :   0.2434 B(  4-B , 10-B ) :   0.5900 B(  4-B , 11-B ) :   0.2513 
B(  5-B ,  6-B ) :   0.7172 B(  5-B ,  7-B ) :   0.8635 B(  5-B ,  8-B ) :   0.1879 
B(  5-B ,  9-B ) :   0.1618 B(  5-B , 10-B ) :   0.7017 B(  5-B , 11-B ) :   0.5327 
B(  6-B ,  7-B ) :   0.1599 B(  6-B ,  8-B ) :   0.1477 B(  6-B ,  9-B ) :   0.1608 
B(  6-B , 10-B ) :   0.6991 B(  6-B , 11-B ) :   0.1776 B(  7-B ,  8-B ) :   0.1805 
B(  7-B ,  9-B ) :   0.2651 B(  7-B , 10-B ) :   0.1579 B(  7-B , 11-B ) :   0.2571 
B(  8-B ,  9-B ) :   0.5276 B(  8-B , 10-B ) :   0.1447 B(  8-B , 11-B ) :   0.1622 
B(  9-B , 10-B ) :   0.7993 B(  9-B , 11-B ) :   0.2405 B( 10-B , 11-B ) :   0.5890 


-------
TIMINGS
-------

Total SCF time: 0 days 0 hours 0 min 5 sec 

Total time                  ....       5.705 sec
Sum of individual times     ....       5.272 sec  ( 92.4%)

SCF preparation             ....       0.524 sec  (  9.2%)
Fock matrix formation       ....       4.003 sec  ( 70.2%)
  Startup                   ....       0.012 sec  (  0.3% of F)
  Split-RI-J                ....       1.264 sec  ( 31.6% of F)
  XC integration            ....       2.806 sec  ( 70.1% of F)
    XC Preparation          ....       0.000 sec  (  0.0% of XC)
    Basis function eval.    ....       0.526 sec  ( 18.8% of XC)
    Density eval.           ....       0.427 sec  ( 15.2% of XC)
    XC-Functional eval.     ....       0.065 sec  (  2.3% of XC)
    XC-Potential eval.      ....       0.511 sec  ( 18.2% of XC)
Diagonalization             ....       0.000 sec  (  0.0%)
Density matrix formation    ....       0.070 sec  (  1.2%)
Total Energy calculation    ....       0.062 sec  (  1.1%)
Population analysis         ....       0.116 sec  (  2.0%)
Orbital Transformation      ....       0.018 sec  (  0.3%)
Orbital Orthonormalization  ....       0.000 sec  (  0.0%)
DIIS solution               ....       0.023 sec  (  0.4%)
SOSCF solution              ....       0.455 sec  (  8.0%)
Finished LeanSCF after   5.8 sec

Maximum memory used throughout the entire LEANSCF-calculation: 11.4 MB


-------------------------------------------------------------------------------
                          DFT DISPERSION CORRECTION                            
                                                                               
                              DFTD3 V3.1  Rev 1                                
                          USING Becke-Johnson damping                          
-------------------------------------------------------------------------------
The BP86 functional is recognized
Active option DFTDOPT                   ...         4   

molecular C6(AA) [au] = 4036.536167 


            DFT-D V3
 parameters
 s6 scaling factor         :     1.0000 
 a1 scaling factor         :     0.3946 
 s8 scaling factor         :     3.2822 
 a2 scaling factor         :     4.8516 
 ad hoc parameters k1-k3   :    16.0000     1.3333    -4.0000 

 Edisp/kcal,au: -23.925123674456  -0.038127107416 
 E6   /kcal   :  -6.812712784 
 E8   /kcal   : -17.112410891 
 % E8         :  71.524858654 

-------------------------   ----------------
Dispersion correction           -0.038127107
-------------------------   ----------------


-------------------------   --------------------
FINAL SINGLE POINT ENERGY      -297.634963374644
-------------------------   --------------------

                                *** OPTIMIZATION RUN DONE ***



           ************************************************************
           *        Program running with 8 parallel MPI-processes     *
           *              working on a common directory               *
           ************************************************************

------------------------------------------------------------------------------
                              ORCA PROPERTY CALCULATIONS
------------------------------------------------------------------------------

GBWName                                 ... icosahedron_nn1.70_perturb0.gbw
Number of atoms                         ...     12
Number of basis functions               ...    168
Max core memory                         ...   2500 MB

Electric properties:
Dipole moment                           ... YES
Quadrupole moment                       ...  NO
Static polarizability (Dipole/Dipole)   ...  NO
Static polarizability (Dipole/Quad.)    ...  NO
Static polarizability (Quad./Quad.)     ...  NO
Static polarizability (Velocity)        ...  NO
Static hyperpolarizability              ...  NO

Atomic electric properties:
Dipole moment                           ...  NO
Quadrupole moment                       ...  NO
Static polarizability                   ...  NO

Choice of electric origin               ... Center of mass
Position of electric origin             ...    -0.035362    -0.025699    -0.031341

General magnetic properties:
Magnetizability                         ...  NO

EPR properties:
g-Tensor (aka g-matrix)                 ...  NO
Zero-Field splitting spin-orbit         ...  NO
Zero-field splitting spin-spin          ...  NO
Hyperfine couplings                     ...  NO (   0 nuclei)
Quadrupole couplings                    ...  NO (   0 nuclei)
Contact density                         ...  NO (   0 nuclei)

NMR properties:
Chemical shifts                         ...  NO (   0 nuclei)
Spin-rotation constants                 ...  NO (   0 nuclei)
Spin-spin couplings                     ...  NO (   0 nuclei,    0 pairs)

Choice of magnetic origin               ... GIAO
Position of magnetic origin             ...     0.000000     0.000000     0.000000

Properties with geometric perturbations:
SCF Hessian                             ...  NO
IR spectrum                             ...  NO
VCD spectrum                            ...  NO
X-ray spectroscopy properties:
SCF XES/XAS/RIXS spectra                ...  NO

SCF SOC stabilization energy            ...  NO
Diagonal Born-Oppenheimer correction    ...  NO

-------------
DIPOLE MOMENT
-------------

Method             : SCF
Type of density    : Electron Density
Multiplicity       :   1
Irrep              :   0
Energy             :  -297.5968362672277294 Eh
Basis              : AO
                                X                 Y                 Z
Electronic contribution:      0.000382844       0.001123704       0.001072957
Nuclear contribution   :      0.000000000      -0.000000000       0.000000000
                        -----------------------------------------
Total Dipole Moment    :      0.000382844       0.001123704       0.001072957
                        -----------------------------------------
Magnitude (a.u.)       :      0.001600162
Magnitude (Debye)      :      0.004067288



--------------------
Rotational spectrum 
--------------------
 
Rotational constants in cm-1:             0.074697             0.074283             0.070806 
Rotational constants in MHz :          2239.360603          2226.941480          2122.700888 

Dipole components along the rotational axes: 
x,y,z [a.u.] :     0.001558     0.000090    -0.000353 
x,y,z [Debye]:     0.003961     0.000229    -0.000897 

 

Dipole moment calculation done in   0.0 sec 

Maximum memory used throughout the entire PROP-calculation: 9.1 MB

--------------------------------
SUGGESTED CITATIONS FOR THIS RUN
--------------------------------

Below you find a list of papers that are relevant to this ORCA run
We neither can nor want to force you to cite these papers, but we appreciate if you do
You receive ORCA, which is the product of decades of hard work by many enthusiastic individuals, for free
The only thing we kindly ask in return is that you cite our papers,
We deeply appreciate it, if you show your appreciation for ORCA by not just citing the generic ORCA reference.

Please note that relegating all ORCA citations to the supporting information does *not* help us.
SI sections are not indexed - citations you put there will not count into any citation statistics
But we need these citations in order to attract the funding resources that allow us to do what we are doing

Therefore, if you are a happy ORCA user, please consider citing a few of the papers listed below in the main body of your paper

In addition to the list printed below, the program has created the file icosahedron_nn1.70_perturb0.bibtex that contains the list in bibtex format
You can import this file easily into all common literature databanks and citation aid programs

It goes without saying that in many instances, there are alternative algorithms to achieve similar
results as the ones you have gotten from ORCA. It is, of course, also the case that in some instances
ORCA just re-implements algorithms worked out by others. We are fully aware of that and we are also
fully appreciative of our colleagues work. Hence this citation list should not be read as indicating
that the listed papers, which are focused on our own work, are the only ones worth citing. It simply
meant to make it easier for users to cite ORCA specific papers. It is not a substitute for doing your
own literature research and citing the relevant literature in a scientifically appropriate manner.

List of essential papers. We consider these as the minimum necessary citations

  1. Neese, F.
     Software update: the ORCA program system, version 6.0
     WIRES Comput. Molec. Sci. 2025 15(1), e70019
     doi.org/10.1002/wcms.70019

List of papers to cite with high priority. The work reported in these papers was absolutely
necessary for this run to complete.
Our perspective: the developers of density functionals and basis sets usually get cited in chemistry papers
Good! But without the algorithms to do something with them, the functionals or basis sets would not do anything.
Hence, in our opinion, the algorithm design and method developments papers are equally worthy of getting cited

  1. Neese, F.
     An improvement of the resolution of the identity approximation for the formation of the Coulomb matrix
     J. Comp. Chem. 2003 24(14), 1740-1747
     doi.org/10.1002/jcc.10318
  2. Grimme, S.; Antony, J.; Ehrlich, S.; Krieg, H.
     A consistent and accurate ab initio parametrization of density functional dispersion correction (DFT-D) for the 94 elements H-Pu
     J. Chem. Phys. 2010 132 , 154104
     doi.org/10.1063/1.3382344
  3. Grimme, S.; Ehrlich, S.; Goerigk, L.
     Effect of the damping function in dispersion corrected density functional theory
     J. Comput. Chem. 2011 32(7), 1456-1465
     doi.org/10.1002/jcc.21759
  4. Neese, F.
     The SHARK Integral Generation and Digestion System
     J. Comp. Chem. 2022 44(3), 381
     doi.org/10.1002/jcc.26942

List of suggested additional citations. These are papers that are important in the 'surrounding' of 
of this run, or papers that preceded the highly important papers. If you like your results we are grateful for a citation.

  1. Neese, F.
     The ORCA program system
     WIRES Comput. Molec. Sci. 2012 2(1), 73-78
     doi.org/10.1002/wcms.81
  2. Neese, F.
     Software update: the ORCA program system, version 4.0
     WIRES Comput. Molec. Sci. 2018 8(1), 1-6
     doi.org/10.1002/wcms.1327
  3. Neese, F.; Wennmohs, F.; Becker, U.; Riplinger, C.
     The ORCA quantum chemistry program package
     J. Chem. Phys. 2020 152(22), 224108
     doi.org/10.1063/5.0004608
  4. Neese, F.
     Software update: The ORCA program system—Version 5.0
     WIRES Comput. Molec. Sci. 2022 12(1), e1606
     doi.org/10.1002/wcms.1606

List of optional additional citations

  1. Neese, F.
     Approximate second-order SCF convergence for spin unrestricted wavefunctions
     Chem. Phys. Lett. 2000 325(1-3), 93-98
     doi.org/10.1016/s0009-2614(00)00662-x

Timings for individual modules:

Sum of individual times          ...      471.186 sec (=   7.853 min)
Startup calculation              ...       50.929 sec (=   0.849 min)  10.8 %
SCF iterations                   ...      345.994 sec (=   5.767 min)  73.4 %
Property calculations            ...        0.795 sec (=   0.013 min)   0.2 %
SCF Gradient evaluation          ...       72.069 sec (=   1.201 min)  15.3 %
Geometry relaxation              ...        1.398 sec (=   0.023 min)   0.3 %
                             ****ORCA TERMINATED NORMALLY****
TOTAL RUN TIME: 0 days 0 hours 8 minutes 14 seconds 76 msec
