
                                 *****************
                                 * O   R   C   A *
                                 *****************

                                            #,                                       
                                            ###                                      
                                            ####                                     
                                            #####                                    
                                            ######                                   
                                           ########,                                 
                                     ,,################,,,,,                         
                               ,,#################################,,                 
                          ,,##########################################,,             
                       ,#########################################, ''#####,          
                    ,#############################################,,   '####,        
                  ,##################################################,,,,####,       
                ,###########''''           ''''###############################       
              ,#####''   ,,,,##########,,,,          '''####'''          '####       
            ,##' ,,,,###########################,,,                        '##       
           ' ,,###''''                  '''############,,,                           
         ,,##''                                '''############,,,,        ,,,,,,###''
      ,#''                                            '''#######################'''  
     '                                                          ''''####''''         
             ,#######,   #######,   ,#######,      ##                                
            ,#'     '#,  ##    ##  ,#'     '#,    #''#        ,####,    ,#,          
            ##       ##  ##   ,#'  ##            #'  '#       #'       ,# #          
            ##       ##  #######   ##           ,######,      #####,      #          
            '#,     ,#'  ##    ##  '#,     ,#' ,#      #,     #,   #      #          
             '#######'   ##     ##  '#######'  #'      '#     '####' #    #          



                #########################################################
                #                        -***-                          #
                #          Department of theory and spectroscopy        #
                #                                                       #
                #                      Frank Neese                      #
                #                                                       #
                #     Directorship, Architecture, Infrastructure        #
                #                    SHARK, DRIVERS                     #
                #        Core code/Algorithms in most modules           #
                #                                                       #
                #        Max Planck Institute fuer Kohlenforschung      #
                #                Kaiser Wilhelm Platz 1                 #
                #                 D-45470 Muelheim/Ruhr                 #
                #                      Germany                          #
                #                                                       #
                #                  All rights reserved                  #
                #                        -***-                          #
                #########################################################


                         Program Version 6.1.1  -  RELEASE   -
                                (GIT: $487d211c$)
                          ($2025-11-21 10:33:24 +0100$)
                                                                         
                                  - NO-DMRG VERSION -                    
                                                                         


 With contributions from (in alphabetic order):
[Max-Planck-Institut fuer Kohlenforschung]                               
  Daniel Aravena         : Magnetic Suceptibility                        
  Michael Atanasov       : Ab Initio Ligand Field Theory (pilot matlab implementation)
  Alexander A. Auer      : GIAO ZORA, VPT2 properties, NMR spectrum      
  Ute Becker             : All parallelization in ORCA, NUMFREQ, NUMCALC 
  Giovanni Bistoni       : ED, misc. LED, open-shell LED, HFLD           
  Dmytro Bykov           : pre 5.0 version of the SCF Hessian            
  Marcos Casanova-Páez   : Triplet and SCS-CIS(D). UHF-(DLPNO)-IP/EA/STEOM-CCSD. UHF-CVS-IP/STEOM-CCSD   
  Vijay G. Chilkuri      : MRCI spin determinant printing, contributions to CSF-ICE 
  Pauline Colinet        : FMM embedding                                 
  Dipayan Datta          : RHF DLPNO-CCSD density                        
  Achintya Kumar Dutta   : EOM-CC, STEOM-CC                              
  Nicolas Foglia         : Exact transition moments, OPA infrastructure, MCD improvements    
  Dmitry Ganyushin       : Spin-Orbit,Spin-Spin,Magnetic field MRCI      
  Miquel Garcia-Rates    : C-PCM and meta-GGA Hessian, CCSD/C-PCM, Gaussian charge scheme 
  Tiago L. C. Gouveia    : GS-ROHF, GS-ROCIS                             
  Yang Guo               : DLPNO-NEVPT2, F12-NEVPT2, CIM, IAO-localization        
  Andreas Hansen         : Spin unrestricted coupled pair/coupled cluster methods 
  Ingolf Harden          : AUTO-CI MPn and infrastructure                
  Benjamin Helmich-Paris : MC-RPA, TRAH-(SCF,CASSCF), AVAS, COSX integrals, SCF dyn. polar., MC-PDFT, srDFT 
  Lee Huntington         : MR-EOM, pCC                                   
  Robert Izsak           : Overlap fitted RIJCOSX, COSX-SCS-MP3, EOM     
  Riya Kayal             : Wick's Theorem for AUTO-CI, AUTO-CI UHF-CCSDT 
  Emily Kempfer          : AUTO-CI RHF CISDT and CCSDT, approximate NEVPT4
  Christian Kollmar      : KDIIS, OOCD, Brueckner-CCSD(T), CCSD density, CASPT2, CASPT2-K, improved NEVPT2 
  Axel Koslowski         : Symmetry handling                             
  Simone Kossmann        : meta-GGA functionals, TD-DFT gradient, OOMP2, (MP2 Hessian; deprecated post 5.0) 
  Lucas Lang             : DCDCAS, Hyperfine gauge corrections, ICE-SOC+SSC
  Marvin Lechner         : AUTO-CI (C++ implementation), FIC-MRCC        
  Spencer Leger          : CASSCF response                               
  Dagmar Lenk            : GEPOL surface, SMD, ORCA-2-JSON               
  Dimitrios Liakos       : Extrapolation schemes; Compound Job, Property file
  Dimitrios Manganas     : Further ROCIS development; embedding schemes. LFT, Crystal Embedding 
  Dimitrios Pantazis     : SARC Basis sets                               
  Anastasios Papadopoulos: AUTO-CI, single reference methods and gradients 
  Taras Petrenko         : pre 6.0 DFT Hessian and TD-DFT gradient,  ECA, NRVS 
  Petra Pikulova         : Analytic Raman intensities                    
  Peter Pinski           : DLPNO-MP2, DLPNO-MP2 Gradient                 
  Shashank Vittal Rao    : ES-AILFT, MagRelax                            
  Christoph Reimann      : Effective Core Potentials                     
  Marius Retegan         : Local ZFS, SOC                                
  Christoph Riplinger    : Optimizer, TS searches, QM/MM, DLPNO-CCSD(T), (RO)-DLPNO pert. Triples 
  Michael Roemelt        : Original ROCIS implementation, recursive CI coupling coefficients
  Masaaki Saitow         : Open-shell DLPNO-CCSD energy and density      
  Barbara Sandhoefer     : DKH picture change effects                    
  Yorick L. A. Schmerwitz: GMF and freeze-and-release deltaSCF, NEB S-IDPP initial path                    
  Kantharuban Sivalingam : CASSCF convergence/infrastructure, NEVPT2, NEVPT3, NEVPT4(SD), FIC-MRCI and CEPA variants
  Bernardo de Souza      : ESD, SOC TD-DFT                               
  Georgi L. Stoychev     : AutoAux, RI-MP2 NMR, DLPNO-MP2 response, X2C  
  Van Anh Tran           : RI-MP2 g-tensors                              
  Willem Van den Heuvel  : Paramagnetic NMR                              
  Zikuan Wang            : NOTCH, Electric field optimization            
  Frank Wennmohs         : Technical directorship and infrastructure     
  Hang Xu                : AUTO-CI-Response properties                   
                                                                         
[FACCTs GmbH]                                                            
  Markus Bursch, Nicolas Foglia, Miquel Garcia-Rates, Ingolf Harden, Hagen Neugebauer, Anastasios Papadopoulos, 
  Christoph Riplinger, Bernardo de Souza, Georgi L. Stoychev                                                    
                                                                 
  APM, various basis sets, CI-OPT, improved COSX, DLPNO-Multilevel,           
  DOCKER, DRACO, updates on ESD, Fragmentator, GOAT, IRC, LR-CPCM, L-BFGS, MBIS, meta-GGA TD-DFT gradient, ML-optimized integration grids, 
  MM, NACMEs, nearIR, NEB, NEB-TS, NL-DFT gradient (VV10), 2- and 3-layer-ONIOM, interface openCOSMO-RS, QMMM,   
  Crystal-QMMM, RESP, rigid body optimization, SF, symmetry and pop. for TD-DFT, various functionals, SOLVATOR                                   
                                                                         
[Other institutions]                                                     
  V. Asgeirsson          : NEB                                           
  Christoph Bannwarth    : sTDA-DFT, sTD-DFT, PBEh-3c, B97-3c, D3        
  Giovanni Bistoni       : ETS/NOCV, ADLD/ADEX, COVALED                  
  Martin Brehm           : Molecular dynamics                            
  Ronald Cardenas        : ETS/NOCV                                      
  Martina Colucci        : COVALED                                       
  Sebastian Ehlert       : rSCAN, r2SCAN, r2SCAN-3c, D4, dhf basis sets  
  Marvin Friede          : D4 for Fr, Ra, Ac-Lr                          
  Lars Goerigk           : TD-DFT with DH, B97 family of functionals     
  Stefan Grimme          : VdW corrections, initial TS optimization, DFT functionals, gCP, sTDA/sTD-DF 
  Waldemar Hujo          : DFT-NL                                        
  H. Jonsson             : NEB                                           
  Holger Kruse           : gCP                                           
  Marcel Mueller         : wB97X-3c, vDZP basis set                      
  Hagen Neugebauer       : wr2SCAN, Native XTB                           
  Gianluca Regni         : ADLD/ADEX                                     
  Tobias Risthaus        : pre 6.0 range-separated hybrid DFT and stability analysis
  Lukas Wittmann         : regularized MP2, r2SCAN double-hybrids, wr2SCAN        
                                                                         
We gratefully acknowledge several colleagues who have allowed us to      
interface, adapt or use parts of their codes:                            
  Ed Valeev, F. Pavosevic, A. Kumar             : LibInt (2-el integral package), F12 methods 
  Garnet Chan, S. Sharma, J. Yang, R. Olivares  : DMRG                   
  Ulf Ekstrom                                   : XCFun DFT Library      
  Mihaly Kallay                                 : mrcc  (arbitrary order and MRCC methods)
  Frank Weinhold                                : gennbo (NPA and NBO analysis)           
  Simon Mueller                                 : openCOSMO-RS                            
  Christopher J. Cramer and Donald G. Truhlar   : smd solvation model                     
  S Lehtola, MJT Oliveira, MAL Marques          : LibXC Library                           
  Liviu Ungur et al                             : ANISO software                          


 Your calculation uses the libint2 library for the computation of 2-el integrals
 For citations please refer to: http://libint.valeyev.net

 Your ORCA version has been built with support for libXC version: 7.0.0
 For citations please refer to: https://libxc.gitlab.io

 This ORCA versions uses:
   CBLAS   interface :  Fast vector & matrix operations
   LAPACKE interface :  Fast linear algebra routines
   SCALAPACK package :  Parallel linear algebra routines
   Shared memory     :  Shared parallel matrices
   BLAS/LAPACK       :  OpenBLAS 0.3.29  USE64BITINT DYNAMIC_ARCH NO_AFFINITY Zen SINGLE_THREADED
        Core in use  :  Zen
   Copyright (c) 2011-2014, The OpenBLAS Project


  ***********************************
  * Starting time: Thu Apr 23 17:06:18 2026
  * Host name:     vmi3233575
  * Process ID:    1361149
  * Working dir.:  /root/b12_scan/jobs/hex_prism_nn5.00
  ***********************************

NOTE: MaxCore=2500 MB was set to SCF,MP2,MDCI,CIPSI,MRCI,RASCI and CIS
      => If you want to overwrite this, your respective input block should be placed after the MaxCore statement
Your calculation utilizes the atom-pairwise dispersion correction
with the Becke-Johnson damping scheme (D3BJ)


================================================================================

----- Orbital basis set information -----
Your calculation utilizes the basis: def2-SVP
   F. Weigend and R. Ahlrichs, Phys. Chem. Chem. Phys. 7, 3297 (2005).

----- AuxJ basis set information -----
Your calculation utilizes the auxiliary basis: def2/J
   H-Rn: F. Weigend, Phys. Chem. Chem. Phys. 8, 1057 (2006).
   Fr-Lr: K. Eichkorn, F. Weigend, O. Treutler, R. Ahlrichs; Theor. Chem. Acc. 97, 119 (1997).

================================================================================
                                        WARNINGS
                       Please study these warnings very carefully!
================================================================================


WARNING: Geometry Optimization
  ===> : Switching off AutoStart
         For restart on a previous wavefunction, please use MOREAD

================================================================================
                                       INPUT FILE
================================================================================
NAME = hex_prism_nn5.00.inp
|  1> ! BP86 def2-SVP def2/J RI Opt TightSCF D3BJ
|  2> ! SlowConv
|  3> 
|  4> %pal nprocs 8 end
|  5> %maxcore 2500
|  6> 
|  7> %geom
|  8>   MaxIter 300
|  9> end
| 10> 
| 11> * xyz 0 1
| 12> B      6.25000000     -0.00000000      2.50000000
| 13> B      6.25000000     -0.00000000     -2.50000000
| 14> B      3.12500000      5.41265877      2.50000000
| 15> B      3.12500000      5.41265877     -2.50000000
| 16> B     -3.12500000      5.41265877      2.50000000
| 17> B     -3.12500000      5.41265877     -2.50000000
| 18> B     -6.25000000      0.00000000      2.50000000
| 19> B     -6.25000000      0.00000000     -2.50000000
| 20> B     -3.12500000     -5.41265877      2.50000000
| 21> B     -3.12500000     -5.41265877     -2.50000000
| 22> B      3.12500000     -5.41265877      2.50000000
| 23> B      3.12500000     -5.41265877     -2.50000000
| 24> *
| 25> 
| 26>                          ****END OF INPUT****
================================================================================

                       *****************************
                       * Geometry Optimization Run *
                       *****************************

Geometry optimization settings:
Update method            Update   .... BFGS
Choice of coordinates    CoordSys .... (2022) Redundant Internals
Initial Hessian          InHess   .... Almloef's Model
Max. no of cycles        MaxIter  .... 300

Convergence Tolerances:
Energy Change            TolE     ....  5.0000e-06 Eh
Max. Gradient            TolMAXG  ....  3.0000e-04 Eh/bohr
RMS Gradient             TolRMSG  ....  1.0000e-04 Eh/bohr
Max. Displacement        TolMAXD  ....  4.0000e-03 bohr
RMS Displacement         TolRMSD  ....  2.0000e-03 bohr
Strict Convergence                .... False

------------------------------------------------------------------------------
                        ORCA OPTIMIZATION COORDINATE SETUP
------------------------------------------------------------------------------

The optimization will be done in redundant internal coordinates (2022)
Making redundant internal coordinates   ...  (2022 redundants) done
Evaluating the initial hessian          ...  (Almloef) done
Evaluating the coordinates              ...  done
Calculating the B-matrix                .... done
Calculating the G-matrix                .... done
The number of degrees of freedom        ....  265

    -----------------------------------------------------------------
                    Redundant Internal Coordinates


    -----------------------------------------------------------------
         Definition                    Initial Value    Approx d2E/dq
    -----------------------------------------------------------------
      1. B(B   1,B   0)                  5.0000         0.010000   
      2. B(B   2,B   0)                  6.2500         0.010000   
      3. B(B   2,B   1)                  8.0039         0.010000   
      4. B(B   3,B   1)                  6.2500         0.010000   
      5. B(B   3,B   2)                  5.0000         0.010000   
      6. B(B   4,B   3)                  8.0039         0.010000   
      7. B(B   4,B   2)                  6.2500         0.010000   
      8. B(B   5,B   4)                  5.0000         0.010000   
      9. B(B   5,B   3)                  6.2500         0.010000   
     10. B(B   6,B   4)                  6.2500         0.010000   
     11. B(B   6,B   2)                 10.8253         0.010000   
     12. B(B   6,B   5)                  8.0039         0.010000   
     13. B(B   7,B   5)                  6.2500         0.010000   
     14. B(B   7,B   6)                  5.0000         0.010000   
     15. B(B   8,B   7)                  8.0039         0.010000   
     16. B(B   8,B   6)                  6.2500         0.010000   
     17. B(B   9,B   7)                  6.2500         0.010000   
     18. B(B   9,B   8)                  5.0000         0.010000   
     19. B(B  10,B   1)                  8.0039         0.010000   
     20. B(B  10,B   2)                 10.8253         0.010000   
     21. B(B  10,B   0)                  6.2500         0.010000   
     22. B(B  10,B   6)                 10.8253         0.010000   
     23. B(B  10,B   8)                  6.2500         0.010000   
     24. B(B  11,B   9)                  6.2500         0.010000   
     25. B(B  11,B   8)                  8.0039         0.010000   
     26. B(B  11,B   1)                  6.2500         0.010000   
     27. B(B  11,B  10)                  5.0000         0.010000   
     28. A(B   1,B   0,B  10)           90.0000         0.089361   
     29. A(B   1,B   0,B   2)           90.0000         0.089361   
     30. A(B   2,B   0,B  10)          120.0000         0.089128   
     31. A(B   0,B   1,B   3)           90.0000         0.089361   
     32. A(B   0,B   1,B   2)           51.3402         0.089084   
     33. A(B   0,B   1,B  11)           90.0000         0.089361   
     34. A(B   0,B   1,B  10)           51.3402         0.089084   
     35. A(B   3,B   1,B  10)          112.9815         0.089030   
     36. A(B   2,B   1,B  11)          112.9815         0.089030   
     37. A(B   2,B   1,B  10)           85.1029         0.089007   
     38. A(B  10,B   1,B  11)           38.6598         0.089030   
     39. A(B   2,B   1,B   3)           38.6598         0.089030   
     40. A(B   3,B   1,B  11)          120.0000         0.089128   
     41. A(B   0,B   2,B   1)           38.6598         0.089030   
     42. A(B   0,B   2,B   4)          120.0000         0.089128   
     43. A(B   1,B   2,B   3)           51.3402         0.089084   
     44. A(B   3,B   2,B   4)           90.0000         0.089361   
     45. A(B   1,B   2,B   4)          112.9815         0.089030   
     46. A(B   0,B   2,B   3)           90.0000         0.089361   
     47. A(B   1,B   3,B   4)          112.9815         0.089030   
     48. A(B   1,B   3,B   2)           90.0000         0.089361   
     49. A(B   2,B   3,B   5)           90.0000         0.089361   
     50. A(B   2,B   3,B   4)           51.3402         0.089084   
     51. A(B   4,B   3,B   5)           38.6598         0.089030   
     52. A(B   1,B   3,B   5)          120.0000         0.089128   
     53. A(B   2,B   4,B   3)           38.6598         0.089030   
     54. A(B   3,B   4,B   5)           51.3402         0.089084   
     55. A(B   2,B   4,B   5)           90.0000         0.089361   
     56. A(B   5,B   4,B   6)           90.0000         0.089361   
     57. A(B   3,B   4,B   6)          112.9815         0.089030   
     58. A(B   2,B   4,B   6)          120.0000         0.089128   
     59. A(B   6,B   5,B   7)           38.6598         0.089030   
     60. A(B   3,B   5,B   7)          120.0000         0.089128   
     61. A(B   4,B   5,B   7)           90.0000         0.089361   
     62. A(B   3,B   5,B   6)          112.9815         0.089030   
     63. A(B   4,B   5,B   6)           51.3402         0.089084   
     64. A(B   3,B   5,B   4)           90.0000         0.089361   
     65. A(B   7,B   6,B   8)           90.0000         0.089361   
     66. A(B   5,B   6,B   8)          112.9815         0.089030   
     67. A(B   4,B   6,B   8)          120.0000         0.089128   
     68. A(B   5,B   6,B   7)           51.3402         0.089084   
     69. A(B   4,B   6,B   7)           90.0000         0.089361   
     70. A(B   4,B   6,B   5)           38.6598         0.089030   
     71. A(B   5,B   7,B   8)          112.9815         0.089030   
     72. A(B   5,B   7,B   9)          120.0000         0.089128   
     73. A(B   6,B   7,B   8)           51.3402         0.089084   
     74. A(B   5,B   7,B   6)           90.0000         0.089361   
     75. A(B   8,B   7,B   9)           38.6598         0.089030   
     76. A(B   6,B   7,B   9)           90.0000         0.089361   
     77. A(B   6,B   8,B   9)           90.0000         0.089361   
     78. A(B   7,B   8,B  11)           85.1029         0.089007   
     79. A(B  10,B   8,B  11)           38.6598         0.089030   
     80. A(B   6,B   8,B  11)          112.9815         0.089030   
     81. A(B   7,B   8,B  10)          112.9815         0.089030   
     82. A(B   6,B   8,B   7)           38.6598         0.089030   
     83. A(B   6,B   8,B  10)          120.0000         0.089128   
     84. A(B   9,B   8,B  10)           90.0000         0.089361   
     85. A(B   9,B   8,B  11)           51.3402         0.089084   
     86. A(B   7,B   8,B   9)           51.3402         0.089084   
     87. A(B   7,B   9,B  11)          120.0000         0.089128   
     88. A(B   8,B   9,B  11)           90.0000         0.089361   
     89. A(B   7,B   9,B   8)           90.0000         0.089361   
     90. A(B   0,B  10,B  11)           90.0000         0.089361   
     91. A(B   0,B  10,B   1)           38.6598         0.089030   
     92. A(B   8,B  10,B  11)           90.0000         0.089361   
     93. A(B   1,B  10,B   8)          112.9815         0.089030   
     94. A(B   0,B  10,B   8)          120.0000         0.089128   
     95. A(B   1,B  10,B  11)           51.3402         0.089084   
     96. A(B   1,B  11,B   8)          112.9815         0.089030   
     97. A(B   8,B  11,B  10)           51.3402         0.089084   
     98. A(B   1,B  11,B  10)           90.0000         0.089361   
     99. A(B   8,B  11,B   9)           38.6598         0.089030   
    100. A(B   1,B  11,B   9)          120.0000         0.089128   
    101. A(B   9,B  11,B  10)           90.0000         0.089361   
    102. D(B   3,B   1,B   0,B   2)      0.0000         0.010000   
    103. D(B  11,B   1,B   0,B   2)   -120.0000         0.010000   
    104. D(B  10,B   1,B   0,B   2)   -120.0000         0.010000   
    105. D(B   3,B   1,B   0,B  10)    120.0000         0.010000   
    106. D(B  11,B   1,B   0,B  10)      0.0000         0.010000   
    107. D(B   2,B   1,B   0,B  10)    120.0000         0.010000   
    108. D(B   4,B   2,B   0,B   1)     90.0000         0.010000   
    109. D(B   0,B   2,B   1,B  11)     70.1673         0.010000   
    110. D(B   0,B   2,B   1,B  10)     42.7445         0.010000   
    111. D(B   4,B   2,B   0,B  10)      0.0000         0.010000   
    112. D(B   4,B   2,B   1,B   0)   -109.8327         0.010000   
    113. D(B   3,B   2,B   1,B   0)    180.0000         0.010000   
    114. D(B   1,B   2,B   0,B  10)    -90.0000         0.010000   
    115. D(B   3,B   2,B   1,B  11)   -109.8327         0.010000   
    116. D(B   4,B   2,B   1,B  10)    -67.0883         0.010000   
    117. D(B   4,B   2,B   1,B   3)     70.1673         0.010000   
    118. D(B   3,B   2,B   0,B  10)    -90.0000         0.010000   
    119. D(B   3,B   2,B   0,B   1)      0.0000         0.010000   
    120. D(B   0,B   2,B   1,B   3)    180.0000         0.010000   
    121. D(B   3,B   2,B   1,B  10)   -137.2555         0.010000   
    122. D(B   4,B   3,B   2,B   1)    120.0000         0.010000   
    123. D(B   4,B   3,B   1,B  11)     42.7305         0.010000   
    124. D(B   4,B   3,B   1,B  10)     -0.0000         0.010000   
    125. D(B   1,B   3,B   2,B   0)      0.0000         0.010000   
    126. D(B   4,B   3,B   2,B   0)    120.0000         0.010000   
    127. D(B   4,B   3,B   1,B   2)    -47.2695         0.010000   
    128. D(B   4,B   3,B   1,B   0)    -47.2695         0.010000   
    129. D(B   2,B   3,B   1,B  11)     90.0000         0.010000   
    130. D(B   1,B   3,B   2,B   4)   -120.0000         0.010000   
    131. D(B   2,B   3,B   1,B   0)      0.0000         0.010000   
    132. D(B   5,B   3,B   2,B   1)    120.0000         0.010000   
    133. D(B   2,B   3,B   1,B  10)     47.2695         0.010000   
    134. D(B   5,B   3,B   2,B   4)      0.0000         0.010000   
    135. D(B   5,B   3,B   2,B   0)    120.0000         0.010000   
    136. D(B   6,B   4,B   3,B   1)    -39.6655         0.010000   
    137. D(B   5,B   4,B   3,B   1)   -109.8327         0.010000   
    138. D(B   2,B   4,B   3,B   5)    180.0000         0.010000   
    139. D(B   5,B   4,B   2,B   0)    -90.0000         0.010000   
    140. D(B   3,B   4,B   2,B   1)    -47.2695         0.010000   
    141. D(B   6,B   4,B   2,B   3)     90.0000         0.010000   
    142. D(B   5,B   4,B   2,B   3)      0.0000         0.010000   
    143. D(B   5,B   4,B   2,B   1)    -47.2695         0.010000   
    144. D(B   6,B   4,B   2,B   0)      0.0000         0.010000   
    145. D(B   5,B   4,B   3,B   2)    180.0000         0.010000   
    146. D(B   3,B   4,B   2,B   0)    -90.0000         0.010000   
    147. D(B   6,B   4,B   3,B   2)   -109.8327         0.010000   
    148. D(B   6,B   4,B   2,B   1)     42.7305         0.010000   
    149. D(B   2,B   4,B   3,B   1)     70.1673         0.010000   
    150. D(B   7,B   5,B   4,B   3)    120.0000         0.010000   
    151. D(B   7,B   5,B   4,B   2)    120.0000         0.010000   
    152. D(B   6,B   5,B   4,B   3)    120.0000         0.010000   
    153. D(B   3,B   5,B   4,B   2)      0.0000         0.010000   
    154. D(B   6,B   5,B   4,B   2)    120.0000         0.010000   
    155. D(B   7,B   5,B   3,B   2)    -90.0000         0.010000   
    156. D(B   6,B   5,B   3,B   4)    -47.2695         0.010000   
    157. D(B   6,B   5,B   3,B   1)     42.7305         0.010000   
    158. D(B   3,B   5,B   4,B   6)   -120.0000         0.010000   
    159. D(B   4,B   5,B   3,B   2)      0.0000         0.010000   
    160. D(B   6,B   5,B   3,B   2)    -47.2695         0.010000   
    161. D(B   4,B   5,B   3,B   1)     90.0000         0.010000   
    162. D(B   5,B   6,B   4,B   2)    -90.0000         0.010000   
    163. D(B   5,B   6,B   4,B   3)    -47.2695         0.010000   
    164. D(B   7,B   6,B   4,B   2)    -90.0000         0.010000   
    165. D(B   8,B   6,B   5,B   7)     70.1673         0.010000   
    166. D(B   8,B   6,B   5,B   3)    -39.6655         0.010000   
    167. D(B   8,B   6,B   5,B   4)   -109.8327         0.010000   
    168. D(B   7,B   6,B   5,B   3)   -109.8327         0.010000   
    169. D(B   7,B   6,B   5,B   4)    180.0000         0.010000   
    170. D(B   4,B   6,B   5,B   7)    180.0000         0.010000   
    171. D(B   8,B   6,B   4,B   5)     90.0000         0.010000   
    172. D(B   8,B   6,B   4,B   3)     42.7305         0.010000   
    173. D(B   8,B   6,B   4,B   2)      0.0000         0.010000   
    174. D(B   4,B   6,B   5,B   3)     70.1673         0.010000   
    175. D(B   7,B   6,B   4,B   5)      0.0000         0.010000   
    176. D(B   7,B   6,B   4,B   3)    -47.2695         0.010000   
    177. D(B   9,B   7,B   6,B   8)      0.0000         0.010000   
    178. D(B   9,B   7,B   6,B   4)    120.0000         0.010000   
    179. D(B   8,B   7,B   6,B   5)    120.0000         0.010000   
    180. D(B   8,B   7,B   6,B   4)    120.0000         0.010000   
    181. D(B   5,B   7,B   6,B   8)   -120.0000         0.010000   
    182. D(B   5,B   7,B   6,B   4)      0.0000         0.010000   
    183. D(B   9,B   7,B   5,B   4)    -90.0000         0.010000   
    184. D(B   8,B   7,B   5,B   6)    -47.2695         0.010000   
    185. D(B   6,B   7,B   5,B   4)      0.0000         0.010000   
    186. D(B   8,B   7,B   5,B   3)     42.7305         0.010000   
    187. D(B   9,B   7,B   6,B   5)    120.0000         0.010000   
    188. D(B   8,B   7,B   5,B   4)    -47.2695         0.010000   
    189. D(B   6,B   7,B   5,B   3)     90.0000         0.010000   
    190. D(B  11,B   8,B   7,B   5)    -67.0883         0.010000   
    191. D(B  10,B   8,B   7,B   9)     70.1673         0.010000   
    192. D(B  10,B   8,B   7,B   5)    -39.6655         0.010000   
    193. D(B  10,B   8,B   7,B   6)   -109.8327         0.010000   
    194. D(B   6,B   8,B   7,B   9)    180.0000         0.010000   
    195. D(B   6,B   8,B   7,B   5)     70.1673         0.010000   
    196. D(B   9,B   8,B   6,B   4)    -90.0000         0.010000   
    197. D(B  11,B   8,B   6,B   7)     47.2695         0.010000   
    198. D(B  11,B   8,B   6,B   5)      0.0000         0.010000   
    199. D(B  11,B   8,B   6,B   4)    -42.7305         0.010000   
    200. D(B   7,B   8,B   6,B   5)    -47.2695         0.010000   
    201. D(B   7,B   8,B   6,B   4)    -90.0000         0.010000   
    202. D(B  10,B   8,B   6,B   7)     90.0000         0.010000   
    203. D(B  11,B   8,B   7,B   6)   -137.2555         0.010000   
    204. D(B  10,B   8,B   6,B   5)     42.7305         0.010000   
    205. D(B  10,B   8,B   6,B   4)      0.0000         0.010000   
    206. D(B  11,B   9,B   8,B   7)    120.0000         0.010000   
    207. D(B  11,B   9,B   8,B  10)      0.0000         0.010000   
    208. D(B  11,B   9,B   8,B   6)    120.0000         0.010000   
    209. D(B   7,B   9,B   8,B  11)   -120.0000         0.010000   
    210. D(B   7,B   9,B   8,B  10)   -120.0000         0.010000   
    211. D(B   7,B   9,B   8,B   6)      0.0000         0.010000   
    212. D(B  11,B   9,B   7,B   8)    -90.0000         0.010000   
    213. D(B  11,B   9,B   7,B   5)      0.0000         0.010000   
    214. D(B  11,B   9,B   7,B   6)    -90.0000         0.010000   
    215. D(B   8,B   9,B   7,B   5)     90.0000         0.010000   
    216. D(B   8,B   9,B   7,B   6)      0.0000         0.010000   
    217. D(B  11,B  10,B   1,B   3)    109.8327         0.010000   
    218. D(B  11,B  10,B   1,B   2)    137.2555         0.010000   
    219. D(B  11,B  10,B   1,B   0)    180.0000         0.010000   
    220. D(B   0,B  10,B   1,B  11)    180.0000         0.010000   
    221. D(B   0,B  10,B   1,B   3)    -70.1673         0.010000   
    222. D(B   0,B  10,B   1,B   2)    -42.7445         0.010000   
    223. D(B   8,B  10,B   0,B   2)      0.0000         0.010000   
    224. D(B   8,B  10,B   0,B   1)    -90.0000         0.010000   
    225. D(B  11,B  10,B   0,B   2)     90.0000         0.010000   
    226. D(B  11,B  10,B   0,B   1)      0.0000         0.010000   
    227. D(B   8,B  10,B   1,B   0)    109.8327         0.010000   
    228. D(B   1,B  10,B   0,B   2)     90.0000         0.010000   
    229. D(B  11,B  10,B   8,B   6)    -90.0000         0.010000   
    230. D(B   1,B  10,B   8,B   9)     47.2695         0.010000   
    231. D(B   1,B  10,B   8,B  11)     47.2695         0.010000   
    232. D(B   1,B  10,B   8,B   7)      0.0000         0.010000   
    233. D(B   1,B  10,B   8,B   6)    -42.7305         0.010000   
    234. D(B   0,B  10,B   8,B   9)     90.0000         0.010000   
    235. D(B   0,B  10,B   8,B  11)     90.0000         0.010000   
    236. D(B   0,B  10,B   8,B   7)     42.7305         0.010000   
    237. D(B   0,B  10,B   8,B   6)      0.0000         0.010000   
    238. D(B   8,B  10,B   1,B   3)     39.6655         0.010000   
    239. D(B   8,B  10,B   1,B   2)     67.0883         0.010000   
    240. D(B   9,B  11,B  10,B   8)      0.0000         0.010000   
    241. D(B   9,B  11,B  10,B   1)   -120.0000         0.010000   
    242. D(B   9,B  11,B  10,B   0)   -120.0000         0.010000   
    243. D(B   8,B  11,B  10,B   1)   -120.0000         0.010000   
    244. D(B   8,B  11,B  10,B   0)   -120.0000         0.010000   
    245. D(B   1,B  11,B  10,B   0)      0.0000         0.010000   
    246. D(B   8,B  11,B   9,B   7)     90.0000         0.010000   
    247. D(B   1,B  11,B   9,B   7)      0.0000         0.010000   
    248. D(B  10,B  11,B   9,B   7)     90.0000         0.010000   
    249. D(B  10,B  11,B   9,B   8)      0.0000         0.010000   
    250. D(B   1,B  11,B   8,B   9)    109.8327         0.010000   
    251. D(B   1,B  11,B   8,B   7)     67.0883         0.010000   
    252. D(B   1,B  11,B   8,B  10)    -70.1673         0.010000   
    253. D(B   1,B  11,B   8,B   6)     39.6655         0.010000   
    254. D(B  10,B  11,B   8,B   9)    180.0000         0.010000   
    255. D(B   1,B  11,B   9,B   8)    -90.0000         0.010000   
    256. D(B  10,B  11,B   8,B   7)    137.2555         0.010000   
    257. D(B  10,B  11,B   8,B   6)    109.8327         0.010000   
    258. D(B   8,B  11,B   1,B  10)     47.2695         0.010000   
    259. D(B   1,B  11,B  10,B   8)    120.0000         0.010000   
    260. D(B   8,B  11,B   1,B   3)    -42.7305         0.010000   
    261. D(B   8,B  11,B   1,B   2)      0.0000         0.010000   
    262. D(B   8,B  11,B   1,B   0)     47.2695         0.010000   
    263. D(B  10,B  11,B   1,B   3)    -90.0000         0.010000   
    264. D(B  10,B  11,B   1,B   2)    -47.2695         0.010000   
    265. D(B  10,B  11,B   1,B   0)      0.0000         0.010000   
    -----------------------------------------------------------------

Number of atoms                         .... 12
Number of degrees of freedom            .... 265


         *************************************************************
         *                GEOMETRY OPTIMIZATION CYCLE   1            *
         *************************************************************
---------------------------------
CARTESIAN COORDINATES (ANGSTROEM)
---------------------------------
  B      6.250000   -0.000000    2.500000
  B      6.250000   -0.000000   -2.500000
  B      3.125000    5.412659    2.500000
  B      3.125000    5.412659   -2.500000
  B     -3.125000    5.412659    2.500000
  B     -3.125000    5.412659   -2.500000
  B     -6.250000    0.000000    2.500000
  B     -6.250000    0.000000   -2.500000
  B     -3.125000   -5.412659    2.500000
  B     -3.125000   -5.412659   -2.500000
  B      3.125000   -5.412659    2.500000
  B      3.125000   -5.412659   -2.500000

----------------------------
CARTESIAN COORDINATES (A.U.)
----------------------------
  NO LB      ZA    FRAG     MASS         X           Y           Z
   0 B     5.0000    0    10.810   11.810788   -0.000000    4.724315
   1 B     5.0000    0    10.810   11.810788   -0.000000   -4.724315
   2 B     5.0000    0    10.810    5.905394   10.228443    4.724315
   3 B     5.0000    0    10.810    5.905394   10.228443   -4.724315
   4 B     5.0000    0    10.810   -5.905394   10.228443    4.724315
   5 B     5.0000    0    10.810   -5.905394   10.228443   -4.724315
   6 B     5.0000    0    10.810  -11.810788    0.000000    4.724315
   7 B     5.0000    0    10.810  -11.810788    0.000000   -4.724315
   8 B     5.0000    0    10.810   -5.905394  -10.228443    4.724315
   9 B     5.0000    0    10.810   -5.905394  -10.228443   -4.724315
  10 B     5.0000    0    10.810    5.905394  -10.228443    4.724315
  11 B     5.0000    0    10.810    5.905394  -10.228443   -4.724315

--------------------------------
INTERNAL COORDINATES (ANGSTROEM)
--------------------------------
 B      0   0   0     0.000000000000     0.00000000     0.00000000
 B      1   0   0     5.000000000000     0.00000000     0.00000000
 B      1   2   0     6.249999996837    90.00000000     0.00000000
 B      3   1   2     5.000000000000    90.00000000     0.00000000
 B      3   1   2     6.250000000000   120.00000002    90.00000000
 B      5   3   1     5.000000000000    90.00000000   270.00000000
 B      5   3   1     6.249999996837   120.00000002     0.00000000
 B      7   5   3     5.000000000000    90.00000000   270.00000000
 B      7   5   3     6.249999996837   119.99999997     0.00000000
 B      9   7   5     5.000000000000    90.00000000   270.00000000
 B      1   2   3     6.249999996837    90.00000000   119.99999997
 B     11   1   2     5.000000000000    90.00000000     0.00000000

---------------------------
INTERNAL COORDINATES (A.U.)
---------------------------
 B      0   0   0     0.000000000000     0.00000000     0.00000000
 B      1   0   0     9.448630669606     0.00000000     0.00000000
 B      1   2   0    11.810788331030    90.00000000     0.00000000
 B      3   1   2     9.448630669606    90.00000000     0.00000000
 B      3   1   2    11.810788337008   120.00000002    90.00000000
 B      5   3   1     9.448630669606    90.00000000   270.00000000
 B      5   3   1    11.810788331030   120.00000002     0.00000000
 B      7   5   3     9.448630669606    90.00000000   270.00000000
 B      7   5   3    11.810788331030   119.99999997     0.00000000
 B      9   7   5     9.448630669606    90.00000000   270.00000000
 B      1   2   3    11.810788331030    90.00000000   119.99999997
 B     11   1   2     9.448630669606    90.00000000     0.00000000

---------------------
BASIS SET INFORMATION
---------------------
There are 1 groups of distinct atoms

 Group   1 Type B   : 7s4p1d contracted to 3s2p1d pattern {511/31/1}

Atom   0B    basis set group =>   1
Atom   1B    basis set group =>   1
Atom   2B    basis set group =>   1
Atom   3B    basis set group =>   1
Atom   4B    basis set group =>   1
Atom   5B    basis set group =>   1
Atom   6B    basis set group =>   1
Atom   7B    basis set group =>   1
Atom   8B    basis set group =>   1
Atom   9B    basis set group =>   1
Atom  10B    basis set group =>   1
Atom  11B    basis set group =>   1
---------------------------------
AUXILIARY/J BASIS SET INFORMATION
---------------------------------
There are 1 groups of distinct atoms

 Group   1 Type B   : 12s5p4d2f1g contracted to 6s4p3d1f1g pattern {711111/2111/211/2/1}

Atom   0B    basis set group =>   1
Atom   1B    basis set group =>   1
Atom   2B    basis set group =>   1
Atom   3B    basis set group =>   1
Atom   4B    basis set group =>   1
Atom   5B    basis set group =>   1
Atom   6B    basis set group =>   1
Atom   7B    basis set group =>   1
Atom   8B    basis set group =>   1
Atom   9B    basis set group =>   1
Atom  10B    basis set group =>   1
Atom  11B    basis set group =>   1


           ************************************************************
           *        Program running with 8 parallel MPI-processes     *
           *              working on a common directory               *
           ************************************************************
------------------------------------------------------------------------------
                             ORCA STARTUP CALCULATIONS
                           -- RI-GTO INTEGRALS CHOSEN --
------------------------------------------------------------------------------
------------------------------------------------------------------------------
                   ___                                                        
                  /   \      - P O W E R E D   B Y -                         
                 /     \                                                     
                 |  |  |   _    _      __       _____    __    __             
                 |  |  |  | |  | |    /  \     |  _  \  |  |  /  |          
                  \  \/   | |  | |   /    \    | | | |  |  | /  /          
                 / \  \   | |__| |  /  /\  \   | |_| |  |  |/  /          
                |  |  |   |  __  | /  /__\  \  |    /   |      \           
                |  |  |   | |  | | |   __   |  |    \   |  |\   \          
                \     /   | |  | | |  |  |  |  | |\  \  |  | \   \       
                 \___/    |_|  |_| |__|  |__|  |_| \__\ |__|  \__/        
                                                                              
                      - O R C A' S   B I G   F R I E N D -                    
                                      &                                       
                       - I N T E G R A L  F E E D E R -                       
                                                                              
 v1 FN, 2020, v2 2021, v3 2022-2024                                           
------------------------------------------------------------------------------


----------------------
SHARK INTEGRAL PACKAGE
----------------------

Number of atoms                             ...     12
Number of basis functions                   ...    168
Number of shells                            ...     72
Maximum angular momentum                    ...      2
Integral batch strategy                     ... SHARK/LIBINT Hybrid
RI-J (if used) integral strategy            ... SPLIT-RIJ (Revised 2003 algorithm where possible)
Printlevel                                  ...      1
Contraction scheme used                     ... SEGMENTED contraction
Prescreening option                         ... SCHWARTZ
   Thresh                                   ... 2.500e-11
   Tcut                                     ... 2.500e-12
   Tpresel                                  ... 2.500e-12 
Coulomb Range Separation                    ... NOT USED
Exchange Range Separation                   ... NOT USED
Multipole approximations                    ... NOT USED
Finite Nucleus Model                        ... NOT USED
CABS basis                                  ... NOT available
Auxiliary Coulomb fitting basis             ... AVAILABLE
   # of basis functions in Aux-J            ...    588
   # of shells in Aux-J                     ...    180
   Maximum angular momentum in Aux-J        ...      4
Auxiliary J/K fitting basis                 ... NOT available
Auxiliary Correlation fitting basis         ... NOT available
Auxiliary 'external' fitting basis          ... NOT available

Checking pre-screening integrals            ... done (  0.0 sec) Dimension = 72
   => SHARK Basis and OBASIS are compatible. Storing Pre-screening
Shell pair information
Shell pair cut-off parameter TPreSel        ...   2.5e-12
Total number of shell pairs                 ...      2628
Shell pairs after pre-screening             ...      1146
Total number of primitive shell pairs       ...     10596
Primitive shell pairs kept                  ...      2736
          la=0 lb=0:    282 shell pairs
          la=1 lb=0:    420 shell pairs
          la=1 lb=1:    174 shell pairs
          la=2 lb=0:    132 shell pairs
          la=2 lb=1:    120 shell pairs
          la=2 lb=2:     18 shell pairs

Checking whether 4 symmetric matrices of dimension 168 fit in memory
:Max Core in MB      =   2500.00
 MB in use           =      4.81
 MB left             =   2495.19
 MB needed           =      0.43
 Data fit in memory  = YES
Calculating RI/J V-Matrix + Cholesky decomp.... done (  0.0 sec)
Calculating Nuclear repulsion               ... done (  0.0 sec) ENN=    101.334827706755 Eh

Diagonalization of the overlap matrix:
Smallest eigenvalue                        ... 1.639e-01
Time for diagonalization                   ...    0.003 sec
Threshold for overlap eigenvalues          ... 1.000e-07
Number of eigenvalues below threshold      ... 0
Time for construction of square roots      ...    0.002 sec
Total time needed                          ...    0.007 sec

-------------------
DFT GRID GENERATION
-------------------

General Integration Accuracy     IntAcc      ... 4.388
Radial Grid Type                 RadialGrid  ... OptM3 with GC (2021)
Angular Grid (max. ang.)         AngularGrid ... 4 (Lebedev-302)
Angular grid pruning method      GridPruning ... 4 (adaptive)
Weight generation scheme         WeightScheme... mBecke (2022)
Basis function cutoff            BFCut       ... 1.0000e-11
Integration weight cutoff        WCut        ... 1.0000e-14
Partially contracted basis set               ... off
Rotationally invariant grid construction     ... off
Angular grids for H and He will be reduced by one unit

Total number of grid points                  ...    73620
Total number of batches                      ...     1152
Average number of points per batch           ...       63
Average number of grid points per atom       ...     6135
Grids setup in   0.6 sec
Initializing property integral containers    ... done (  0.0 sec)

SHARK setup successfully completed in   0.8 seconds

Maximum memory used throughout the entire STARTUP-calculation: 17.9 MB


           ************************************************************
           *        Program running with 8 parallel MPI-processes     *
           *              working on a common directory               *
           ************************************************************
-------------------------------------------------------------------------------
                                 ORCA GUESS
                   Start orbitals & Density for SCF / CASSCF
-------------------------------------------------------------------------------

------------
SCF SETTINGS
------------
Hamiltonian:
 Density Functional     Method          .... DFT(GTOs)
 Exchange Functional    Exchange        .... B88
   X-Alpha parameter    XAlpha          ....  0.666667
   Becke's b parameter  XBeta           ....  0.004200
 Correlation Functional Correlation     .... P86
 LDA part of GGA corr.  LDAOpt          .... PW91-LDA
 Gradients option       PostSCFGGA      .... off
   NL short-range parameter             ....  4.400000
 RI-approximation to the Coulomb term is turned on
   Number of AuxJ basis functions       .... 588


General Settings:
 Integral files         IntName         .... hex_prism_nn5.00
 Hartree-Fock type      HFTyp           .... RHF
 Total Charge           Charge          ....    0
 Multiplicity           Mult            ....    1
 Number of Electrons    NEL             ....   60
 Basis Dimension        Dim             ....  168
 Nuclear Repulsion      ENuc            ....    101.3348277068 Eh

Convergence Acceleration:
 AO-DIIS                CNVDIIS         .... on
   Start iteration      DIISMaxIt       ....     0
   Startup error        DIISStart       ....  0.200000
   # of expansion vecs  DIISMaxEq       ....     5
   Bias factor          DIISBfac        ....   1.050
   Max. coefficient     DIISMaxC        ....  10.000
 MO-DIIS                CNVKDIIS        .... off
 Trust-Rad. Augm. Hess. CNVTRAH         .... auto
   Auto Start mean grad. ratio tolernc. ....  1.125000
   Auto Start start iteration           ....    50
   Auto Start num. interpolation iter.  ....    10
   Max. Number of Micro iterations      ....    24
   Max. Number of Macro iterations      .... Maxiter - #DIIS iter
   Number of Davidson start vectors     ....     2
   Converg. threshold    (grad. norm)   ....   1.000e-05
   Grad. Scal. Fac. for Micro threshold ....   0.100
   Minimum threshold for Micro iter.    ....   1.000e-02
   NR start threshold (gradient norm)   ....   1.000e-04
   Initial trust radius                 ....   0.400
   Minimum AH scaling param. (alpha)    ....   1.000
   Maximum AH scaling param. (alpha)    .... 1000.000
   Quad. conv. algorithm                .... NR
   White noise on init. David. guess    .... on
   Maximum white noise                  ....   0.010
   Pseudo random numbers                .... off
   Inactive MOs                         .... canonical
   Orbital update algorithm             .... Taylor
   Preconditioner                       .... Diag
   Full preconditioner red. dimension   ....   250
 SOSCF                 CNVSOSCF           .... on
   Start iteration     SOSCFMaxIt         ....   150
   Startup grad/error  SOSCFStart         ....  0.001000
   Hessian update      SOSCFHessUp        .... L-BFGS
   Autom. constraints  SOSCFAutoConstrain .... off
 Level Shifting         CNVShift        .... on
   Level shift para.    LevelShift      ....    0.2500
   Turn off err/grad.   ShiftErr        ....    0.0000
 Zerner damping         CNVZerner       .... off
 Static damping         CNVDamp         .... on
   Fraction old density DampFac         ....    0.8500
   Max. Damping (<1)    DampMax         ....    0.9800
   Min. Damping (>=0)   DampMin         ....    0.0000
   Turn off err/grad.   DampErr         ....    0.0300

SCF Procedure:
 Maximum # iterations   MaxIter         ....   125
 SCF integral mode      SCFMode         .... Direct
   Integral package                     .... SHARK and LIBINT hybrid scheme
 Reset frequency        DirectResetFreq ....    20
 Integral Threshold     Thresh          ....  2.500e-11 Eh
 Primitive CutOff       TCut            ....  2.500e-12 Eh

Convergence Tolerance:
 Convergence Check Mode ConvCheckMode   .... Total+1el-Energy
 Convergence forced     ConvForced      .... 0
 Energy Change          TolE            ....  1.000e-08 Eh
 1-El. energy change                    ....  1.000e-05 Eh
 Orbital Gradient       TolG            ....  1.000e-05
 Orbital Rotation angle TolX            ....  1.000e-05
 DIIS Error             TolErr          ....  5.000e-07

------------------------------
INITIAL GUESS: MODEL POTENTIAL
------------------------------
Loading Hartree-Fock densities                     ... done
Calculating cut-offs                               ... done
Initializing the effective Hamiltonian             ... done
Setting up the integral package (SHARK)            ... done
Starting the Coulomb interaction                   ... done (   0.0 sec)
Making the grid                                    ... done (   0.2 sec)
Mapping shells                                     ... done
Starting the XC term evaluation                    ... done (   0.0 sec)
  promolecular density results
     # of electrons  =     59.997378487
     EX              =    -44.176001178
     EC              =     -1.556388141
     EX+EC           =    -45.732389319
Transforming the Hamiltonian                       ... done (   0.0 sec)
Diagonalizing the Hamiltonian                      ... done (   0.0 sec)
Back transforming the eigenvectors                 ... done (   0.0 sec)
Now organizing SCF variables                       ... done
                      ------------------
                      INITIAL GUESS DONE (   0.2 sec)
                      ------------------
             **** ENERGY FILE WAS UPDATED (hex_prism_nn5.00.en.tmp) ****
Finished Guess after   0.7 sec
Maximum memory used throughout the entire GUESS-calculation: 8.3 MB


           ************************************************************
           *        Program running with 8 parallel MPI-processes     *
           *              working on a common directory               *
           ************************************************************

-------------------------------------------------------------------------------------------
                                      ORCA LEAN-SCF
                              memory conserving SCF solver
-------------------------------------------------------------------------------------------

----------------------------------------D-I-I-S--------------------------------------------
Iteration    Energy (Eh)           Delta-E    RMSDP     MaxDP     DIISErr   Damp  Time(sec)
-------------------------------------------------------------------------------------------
               ***  Starting incremental Fock matrix formation  ***
    1    -295.2920599739749719     0.00e+00  5.14e-04  4.54e-03  1.23e-02  0.850   0.1
Warning: op=0 Small HOMO/LUMO gap (  -0.003) - skipping pre-diagonalization
         Will do a full diagonalization
    2    -295.2924366187347687    -3.77e-04  6.35e-04  5.56e-03  1.08e-02  0.850   0.2
                               ***Turning on AO-DIIS***
    3    -295.2927678330920003    -3.31e-04  4.44e-04  3.90e-03  9.17e-03  0.850   0.1
    4    -295.2930265195432753    -2.59e-04  2.17e-03  1.92e-02  7.79e-03  0.000   0.2
                              *** Initializing SOSCF ***
---------------------------------------S-O-S-C-F--------------------------------------
Iteration    Energy (Eh)           Delta-E    RMSDP     MaxDP     MaxGrad    Time(sec)
--------------------------------------------------------------------------------------
    5    -295.2942723422503946    -1.25e-03  1.03e-04  6.75e-04  2.61e-04     0.2
               *** Restarting incremental Fock matrix formation ***
    6    -295.2942751934281773    -2.85e-06  5.49e-05  1.85e-04  7.59e-05     0.2
    7    -295.2942763292719519    -1.14e-06  4.81e-04  1.76e-03  7.47e-05     0.1
    8    -295.2942836296615496    -7.30e-06  1.01e-03  3.80e-03  2.36e-04     0.1
    9    -295.2942965995391091    -1.30e-05  3.46e-03  1.30e-02  4.86e-04     0.2
               *** Scaled step length from 0.274160 to 0.200000 ***
   10    -295.2943369141615335    -4.03e-05  6.28e-03  2.27e-02  9.75e-04     0.1
               *** Scaled step length from 0.269618 to 0.200000 ***
   11    -295.2944016818465798    -6.48e-05  6.33e-03  2.11e-02  1.50e-03     0.1
   12    -295.2944640995614805    -6.24e-05  3.62e-03  1.11e-02  1.60e-03     0.1
   13    -295.2945738392540420    -1.10e-04  1.29e-03  6.13e-03  1.16e-03     0.1
   14    -295.2947225204873689    -1.49e-04  1.50e-03  3.98e-03  6.02e-04     0.1
               *** Scaled step length from 0.316640 to 0.200000 ***
   15    -295.2947926632419353    -7.01e-05  6.36e-03  1.49e-02  8.34e-04     0.1
   16    -295.2951665874369951    -3.74e-04  5.20e-03  1.72e-02  1.76e-03     0.1
   17    -295.2954623430806578    -2.96e-04  5.00e-03  2.02e-02  2.09e-03     0.1
   18    -295.2954511767235317     1.12e-05  2.76e-03  1.70e-02  3.24e-03     0.1
   19    -295.2956616447702345    -2.10e-04  4.73e-03  2.42e-02  1.45e-03     0.1
   20    -295.2956510913345483     1.06e-05  2.30e-03  1.42e-02  1.67e-03     0.1
   21    -295.2956610144516389    -9.92e-06  5.02e-03  2.29e-02  1.38e-03     0.1
   22    -295.2957626763475787    -1.02e-04  2.90e-03  1.27e-02  6.01e-04     0.1
   23    -295.2957318836145078     3.08e-05  2.15e-03  1.32e-02  1.21e-03     0.1
   24    -295.2957975593601532    -6.57e-05  4.33e-03  1.41e-02  6.68e-04     0.1
   25    -295.2958243722098359    -2.68e-05  1.84e-03  6.31e-03  4.07e-04     0.1
               *** Restarting incremental Fock matrix formation ***
   26    -295.2958694589373181    -4.51e-05  2.26e-03  7.31e-03  5.50e-04     0.1
   27    -295.2958744674330092    -5.01e-06  1.17e-03  6.02e-03  9.22e-04     0.1
   28    -295.2959578422016875    -8.34e-05  2.50e-03  6.47e-03  6.37e-04     0.1
               *** Scaled step length from 0.268449 to 0.200000 ***
   29    -295.2961107191757719    -1.53e-04  6.29e-03  1.80e-02  7.52e-04     0.1
               *** Scaled step length from 0.662361 to 0.200000 ***
   30    -295.2963452555874255    -2.35e-04  6.28e-03  1.76e-02  2.18e-03     0.1
               *** Scaled step length from 0.270035 to 0.200000 ***
   31    -295.2966212518092561    -2.76e-04  6.25e-03  1.84e-02  1.92e-03     0.3
   32    -295.2968967419938053    -2.75e-04  2.86e-03  7.45e-03  8.84e-04     0.2
   33    -295.2969691580610743    -7.24e-05  1.19e-03  3.87e-03  1.50e-04     0.2
   34    -295.2969715048705552    -2.35e-06  6.91e-04  2.56e-03  3.80e-04     0.2
   35    -295.2969738635500789    -2.36e-06  8.47e-04  2.98e-03  3.03e-04     0.2
   36    -295.2969795731577278    -5.71e-06  5.21e-04  1.94e-03  1.39e-04     0.2
   37    -295.2969805385069435    -9.65e-07  2.81e-04  1.52e-03  2.81e-04     0.1
   38    -295.2969865547141239    -6.02e-06  8.63e-04  3.16e-03  2.14e-04     0.1
   39    -295.2969934392218647    -6.88e-06  6.75e-04  2.35e-03  4.22e-04     0.1
   40    -295.2970021011283279    -8.66e-06  1.62e-03  5.95e-03  4.00e-04     0.1
   41    -295.2970002775772969     1.82e-06  6.18e-04  2.53e-03  5.36e-04     0.2
   42    -295.2970140346960193    -1.38e-05  1.28e-04  3.82e-04  7.84e-05     0.1
   43    -295.2970152354379252    -1.20e-06  4.28e-04  1.42e-03  7.38e-05     0.2
   44    -295.2970181601747299    -2.92e-06  6.38e-04  2.17e-03  1.48e-04     0.3
   45    -295.2970214439706069    -3.28e-06  5.25e-04  1.69e-03  1.84e-04     0.3
               *** Restarting incremental Fock matrix formation ***
   46    -295.2970249409858070    -3.50e-06  1.69e-04  7.70e-04  1.65e-04     0.3
   47    -295.2970267372130024    -1.80e-06  1.46e-04  5.40e-04  5.33e-05     0.2
   48    -295.2970272382328858    -5.01e-07  6.54e-05  2.72e-04  2.93e-05     0.2
   49    -295.2970276291615050    -3.91e-07  2.70e-04  8.51e-04  5.02e-05     0.1
   50    -295.2970289551582823    -1.33e-06  3.22e-04  1.05e-03  8.71e-05     0.2

       ******************************************************************************
       ***                                                                        ***
       ***                               Auto-TRAH                                ***
       ***                               ---------                                ***
       *** the maximum gradient error decreased on average only by a factor   1.1 ***
       *** during the last  10 iterations                                         ***
       ***                                                                        ***
       ***               Leaving SCF to start the TRAH-SCF procedure              ***
       ***                                                                        ***
       ******************************************************************************

 --------------------------------------------------------------------------------------------
   Iter.        energy            ||Error||_2        Shift      TRadius  Mac/Mic        Rej.
 --------------------------------------------------------------------------------------------
    0       -295.297030468702     4.193384e-04                     0.400 (TRAH MAcro)   No
WARNING: 9 diagonal Hessian elements are negative!
WARNING : negative HOMO - LUMO gap : -0.000682
WARNING : negative HOMO - LUMO gap : -0.000682
    0     dE    -6.487749e-09     3.880000e-04    -1.2975e-08      0.000 (TRAH MIcro)
    0     dE    -1.834154e-08     3.242064e-04    -3.6683e-08      0.000 (TRAH MIcro)
    0     dE    -2.716961e-08     2.780553e-04    -5.4339e-08      0.000 (TRAH MIcro)
    0     dE    -6.832491e-08     3.866736e-04    -1.3665e-07      0.001 (TRAH MIcro)
    0     dE    -1.086422e-07     5.820315e-04    -2.1728e-07      0.001 (TRAH MIcro)
    0     dE    -4.680589e-07     1.140287e-03    -9.3608e-07      0.007 (TRAH MIcro)
    0     dE    -8.093674e-07     1.237646e-03    -1.6185e-06      0.012 (TRAH MIcro)
    0     dE    -1.224001e-06     4.845272e-04    -2.4472e-06      0.018 (TRAH MIcro)
    0     dE    -1.258225e-06     4.141537e-04    -2.5156e-06      0.018 (TRAH MIcro)
    0     dE    -1.329540e-06     4.660566e-04    -2.6582e-06      0.018 (TRAH MIcro)
    0     dE    -1.373958e-06     2.825224e-04    -2.7469e-06      0.019 (TRAH MIcro)
    0     dE    -1.443223e-06     1.772064e-04    -2.8852e-06      0.020 (TRAH MIcro)
    0     dE    -1.449831e-06     1.288219e-04    -2.8984e-06      0.021 (TRAH MIcro)
    0     dE    -1.452529e-06     1.138730e-04    -2.9038e-06      0.021 (TRAH MIcro)
    0     dE    -1.456514e-06     1.311945e-04    -2.9117e-06      0.021 (TRAH MIcro)
    0     dE    -1.477115e-06     6.832138e-05    -2.9528e-06      0.022 (TRAH MIcro)
    0     dE    -1.482567e-06     6.061238e-05    -2.9636e-06      0.023 (TRAH MIcro)
    0     dE    -1.486473e-06     2.608932e-05    -2.9714e-06      0.023 (TRAH MIcro)
    1       -295.297031939093     8.770214e-05                           (NR   MAcro)
WARNING: 9 diagonal Hessian elements are negative!
WARNING : negative HOMO - LUMO gap : -0.000681
    1     dE    -2.012483e-09     3.801132e-05                           (NR   MIcro)
    1     dE    -2.047816e-09     3.579440e-05                           (NR   MIcro)
    1     dE    -2.146447e-09     2.710309e-05                           (NR   MIcro)
    1     dE    -2.191540e-09     2.565778e-05                           (NR   MIcro)
    1     dE    -2.225936e-09     2.700988e-05                           (NR   MIcro)
    1     dE    -2.832445e-09     3.930708e-05                           (NR   MIcro)
    1     dE    -3.175950e-09     2.887879e-05                           (NR   MIcro)
    1     dE    -3.355352e-09     2.201342e-05                           (NR   MIcro)
    1     dE    -3.464623e-09     1.705205e-05                           (NR   MIcro)
    1     dE    -3.524811e-09     1.675662e-05                           (NR   MIcro)
    1     dE    -3.832213e-09     2.488653e-05                           (NR   MIcro)
    1     dE    -4.011241e-09     1.194451e-05                           (NR   MIcro)
    1     dE    -4.019190e-09     1.232577e-05                           (NR   MIcro)
    1     dE    -4.124909e-09     1.103535e-05                           (NR   MIcro)
    1     dE    -4.134714e-09     1.179608e-05                           (NR   MIcro)
    1     dE    -4.256096e-09     1.130785e-05                           (NR   MIcro)
    1     dE    -4.433892e-09     1.270027e-05                           (NR   MIcro)
    1     dE    -4.665444e-09     1.405092e-05                           (NR   MIcro)
    1     dE    -5.352877e-09     2.531975e-05                           (NR   MIcro)
    1     dE    -7.157723e-09     3.154029e-05                           (NR   MIcro)
    1     dE    -1.123652e-08     5.607521e-05                           (NR   MIcro)
    1     dE    -2.976411e-08     1.404204e-04                           (NR   MIcro)
    1     dE    -5.765411e-08     8.305643e-05                           (NR   MIcro)
    1     dE    -7.390491e-08     7.842318e-05                           (NR   MIcro)
    2       -295.297031996808     1.531635e-04                     0.480 (TRAH MAcro)   No
WARNING: 8 diagonal Hessian elements are negative!
WARNING : negative HOMO - LUMO gap : -0.000675
WARNING : negative HOMO - LUMO gap : -0.000675
    2     dE    -3.725975e-09     1.114691e-04    -7.4519e-09      0.000 (TRAH MIcro)
    2     dE    -4.470112e-09     8.422836e-05    -8.9402e-09      0.000 (TRAH MIcro)
    2     dE    -6.996604e-09     1.012553e-04    -1.3993e-08      0.001 (TRAH MIcro)
    2     dE    -7.948281e-09     1.018450e-04    -1.5897e-08      0.001 (TRAH MIcro)
    2     dE    -9.178569e-09     8.261666e-05    -1.8357e-08      0.001 (TRAH MIcro)
    2     dE    -9.677361e-09     8.649082e-05    -1.9355e-08      0.001 (TRAH MIcro)
    2     dE    -1.598082e-08     1.018379e-04    -3.1961e-08      0.003 (TRAH MIcro)
    2     dE    -1.890610e-08     6.760414e-05    -3.7812e-08      0.004 (TRAH MIcro)
    2     dE    -2.033107e-08     5.654179e-05    -4.0661e-08      0.004 (TRAH MIcro)
    2     dE    -2.081375e-08     6.045866e-05    -4.1627e-08      0.004 (TRAH MIcro)
    2     dE    -2.296784e-08     7.763145e-05    -4.5935e-08      0.005 (TRAH MIcro)
    2     dE    -2.447821e-08     4.113091e-05    -4.8955e-08      0.006 (TRAH MIcro)
    2     dE    -2.571731e-08     5.049543e-05    -5.1433e-08      0.006 (TRAH MIcro)
    2     dE    -2.613911e-08     3.101603e-05    -5.2276e-08      0.007 (TRAH MIcro)
    2     dE    -2.620053e-08     2.672824e-05    -5.2399e-08      0.007 (TRAH MIcro)
    2     dE    -2.653451e-08     3.216481e-05    -5.3067e-08      0.007 (TRAH MIcro)
    2     dE    -2.676158e-08     1.896580e-05    -5.3521e-08      0.007 (TRAH MIcro)
    2     dE    -2.722400e-08     2.132066e-05    -5.4445e-08      0.007 (TRAH MIcro)
    2     dE    -2.786548e-08     2.180113e-05    -5.5728e-08      0.007 (TRAH MIcro)
    2     dE    -2.841191e-08     1.711328e-05    -5.6821e-08      0.007 (TRAH MIcro)
    2     dE    -2.872680e-08     1.687287e-05    -5.7451e-08      0.007 (TRAH MIcro)
    2     dE    -2.916041e-08     2.101685e-05    -5.8317e-08      0.008 (TRAH MIcro)
    2     dE    -3.000945e-08     2.892235e-05    -6.0015e-08      0.008 (TRAH MIcro)
    3       -295.297032027213     3.265089e-05                           (NR   MAcro)
WARNING: 9 diagonal Hessian elements are negative!
WARNING : negative HOMO - LUMO gap : -0.000678
    3     dE    -8.014070e-11     2.810964e-05                           (NR   MIcro)
    3     dE    -8.292622e-11     2.807942e-05                           (NR   MIcro)
    3     dE    -1.599995e-10     3.176319e-05                           (NR   MIcro)
    3     dE    -4.490809e-10     2.291795e-05                           (NR   MIcro)
    3     dE    -5.295236e-10     1.868085e-05                           (NR   MIcro)
    3     dE    -6.140392e-10     1.764250e-05                           (NR   MIcro)
    3     dE    -6.311462e-10     1.607002e-05                           (NR   MIcro)
    3     dE    -6.533055e-10     1.453096e-05                           (NR   MIcro)
    3     dE    -6.742587e-10     1.529356e-05                           (NR   MIcro)
    3     dE    -8.074388e-10     2.286756e-05                           (NR   MIcro)
    3     dE    -9.426443e-10     1.501289e-05                           (NR   MIcro)
    3     dE    -1.061078e-09     2.127951e-05                           (NR   MIcro)
    3     dE    -1.147849e-09     1.555165e-05                           (NR   MIcro)
    3     dE    -1.157373e-09     1.556933e-05                           (NR   MIcro)
    3     dE    -1.277988e-09     1.756001e-05                           (NR   MIcro)
    3     dE    -1.317035e-09     1.340233e-05                           (NR   MIcro)
    3     dE    -1.604526e-09     1.775919e-05                           (NR   MIcro)
    3     dE    -2.322954e-09     2.730569e-05                           (NR   MIcro)
    3     dE    -3.905663e-09     3.945115e-05                           (NR   MIcro)
    3     dE    -8.139512e-09     5.708934e-05                           (NR   MIcro)
    3     dE    -1.444379e-08     6.036038e-05                           (NR   MIcro)
    3     dE    -2.102258e-08     6.938629e-05                           (NR   MIcro)
    3     dE    -2.673101e-08     3.476999e-05                           (NR   MIcro)
    3     dE    -2.782945e-08     2.289764e-05                           (NR   MIcro)
    4       -295.297032055369     2.805635e-05                           (NR   MAcro)
WARNING: 9 diagonal Hessian elements are negative!
WARNING : negative HOMO - LUMO gap : -0.000678
    4     dE    -5.593592e-11     2.278744e-05                           (NR   MIcro)
    4     dE    -5.790165e-11     2.268596e-05                           (NR   MIcro)
    4     dE    -6.015918e-11     2.280329e-05                           (NR   MIcro)
    4     dE    -2.220482e-10     2.548710e-05                           (NR   MIcro)
    4     dE    -3.125396e-10     1.988855e-05                           (NR   MIcro)
    4     dE    -3.500589e-10     1.721276e-05                           (NR   MIcro)
    4     dE    -3.577909e-10     1.504825e-05                           (NR   MIcro)
    4     dE    -3.750480e-10     1.660121e-05                           (NR   MIcro)
    4     dE    -4.739984e-10     2.059939e-05                           (NR   MIcro)
    4     dE    -5.978087e-10     1.852554e-05                           (NR   MIcro)
    4     dE    -6.396438e-10     1.833708e-05                           (NR   MIcro)
    4     dE    -9.432393e-10     2.192396e-05                           (NR   MIcro)
    4     dE    -9.677768e-10     2.259081e-05                           (NR   MIcro)
    4     dE    -1.407324e-09     3.960302e-05                           (NR   MIcro)
    4     dE    -1.680138e-09     3.402028e-05                           (NR   MIcro)
    4     dE    -2.674872e-09     7.100697e-05                           (NR   MIcro)
    4     dE    -5.882938e-09     7.736681e-05                           (NR   MIcro)
    4     dE    -1.665875e-08     1.407675e-04                           (NR   MIcro)
    4     dE    -3.793829e-08     9.931396e-05                           (NR   MIcro)
    4     dE    -4.990986e-08     7.566540e-05                           (NR   MIcro)
    4     dE    -5.437693e-08     5.466540e-05                           (NR   MIcro)
    4     dE    -5.643712e-08     4.014030e-05                           (NR   MIcro)
    4     dE    -5.754909e-08     3.462109e-05                           (NR   MIcro)
    4     dE    -5.904634e-08     5.171099e-05                           (NR   MIcro)
    5       -295.297032114918     6.555951e-05                           (NR   MAcro)
WARNING: 8 diagonal Hessian elements are negative!
WARNING : negative HOMO - LUMO gap : -0.000677
    5     dE    -3.433381e-10     5.579087e-05                           (NR   MIcro)
    5     dE    -4.892637e-10     5.190887e-05                           (NR   MIcro)
    5     dE    -5.039797e-10     5.151716e-05                           (NR   MIcro)
    5     dE    -1.557942e-09     5.203646e-05                           (NR   MIcro)
    5     dE    -1.773995e-09     3.632920e-05                           (NR   MIcro)
    5     dE    -1.854928e-09     3.204757e-05                           (NR   MIcro)
    5     dE    -1.865534e-09     3.162134e-05                           (NR   MIcro)
    5     dE    -1.978258e-09     3.611314e-05                           (NR   MIcro)
    5     dE    -2.385454e-09     3.921685e-05                           (NR   MIcro)
    5     dE    -2.911036e-09     4.246670e-05                           (NR   MIcro)
    5     dE    -3.101138e-09     4.158450e-05                           (NR   MIcro)
    5     dE    -4.398019e-09     5.424304e-05                           (NR   MIcro)
    5     dE    -4.609791e-09     5.075094e-05                           (NR   MIcro)
    5     dE    -4.833371e-09     5.691409e-05                           (NR   MIcro)
    5     dE    -7.560740e-09     6.798761e-05                           (NR   MIcro)
    5     dE    -7.861143e-09     6.696403e-05                           (NR   MIcro)
    5     dE    -1.823057e-08     9.926661e-05                           (NR   MIcro)
    5     dE    -4.999064e-08     2.024503e-04                           (NR   MIcro)
    5     dE    -1.311018e-07     3.293600e-04                           (NR   MIcro)
    5     dE    -2.709543e-07     2.882245e-04                           (NR   MIcro)
    5     dE    -3.882017e-07     2.407638e-04                           (NR   MIcro)
    5     dE    -4.442862e-07     2.259845e-04                           (NR   MIcro)
    5     dE    -4.998665e-07     1.754833e-04                           (NR   MIcro)
    5     dE    -5.305439e-07     1.946988e-04                           (NR   MIcro)
    6       -295.297032621691     4.468829e-04                     0.576 (TRAH MAcro)   No
WARNING: 8 diagonal Hessian elements are negative!
WARNING : negative HOMO - LUMO gap : -0.000681
WARNING : negative HOMO - LUMO gap : -0.000681
    6     dE    -2.255093e-07     7.705831e-04    -4.5101e-07      0.003 (TRAH MIcro)
    6     dE    -6.458592e-07     1.517249e-03    -1.2915e-06      0.012 (TRAH MIcro)
    6     dE    -4.395544e-06     4.727883e-03    -8.7196e-06      0.091 (TRAH MIcro)
    6     dE    -6.158418e-05     1.656207e-02    -2.1758e-04      0.557 (TRAH MIcro)
    6     dE    -1.222599e-04     1.269694e-02    -5.6835e-04      0.576 (TRAH MIcro)
    6     dE    -1.908866e-04     7.299508e-03    -1.1956e-03      0.527 (TRAH MIcro)
    6     dE    -2.360289e-04     9.924987e-03    -1.2795e-03      0.572 (TRAH MIcro)
    6     dE    -3.288666e-04     6.309745e-03    -1.8369e-03      0.576 (TRAH MIcro)
    6     dE    -3.346927e-04     4.410598e-03    -1.8731e-03      0.576 (TRAH MIcro)
    6     dE    -3.488004e-04     6.170782e-03    -1.9575e-03      0.576 (TRAH MIcro)
    6     dE    -3.575809e-04     2.778696e-03    -2.0105e-03      0.576 (TRAH MIcro)
    6     dE    -3.589727e-04     2.799605e-03    -2.0186e-03      0.576 (TRAH MIcro)
    6     dE    -1.308118e-04     1.028734e-03    -2.1749e-03      0.328 (TRAH MIcro)
    6     dE    -1.327538e-04     1.176887e-03    -2.1967e-03      0.329 (TRAH MIcro)
    6     dE    -1.396722e-04     1.274424e-03    -2.2207e-03      0.336 (TRAH MIcro)
    6     dE    -1.412185e-04     1.968720e-03    -2.2319e-03      0.337 (TRAH MIcro)
    6     dE    -1.455262e-04     5.719425e-04    -2.2652e-03      0.340 (TRAH MIcro)
    6     dE    -1.456224e-04     5.468540e-04    -2.2661e-03      0.340 (TRAH MIcro)
    6     dE    -1.467441e-04     4.067778e-04    -2.2696e-03      0.341 (TRAH MIcro)
    6     dE    -1.470542e-04     2.309553e-04    -2.2700e-03      0.342 (TRAH MIcro)
    6     dE    -1.476463e-04     9.796795e-05    -2.2709e-03      0.342 (TRAH MIcro)
    6     dE    -1.473971e-04     3.988160e-05    -2.2710e-03      0.342 (TRAH MIcro)
    7       -295.297125429808     1.143058e-02                     0.576 (TRAH MAcro)   No
WARNING: 23 diagonal Hessian elements are negative!
WARNING : negative HOMO - LUMO gap : -0.002524
WARNING : negative HOMO - LUMO gap : -0.002524
    7     dE    -3.469210e-05     4.505330e-03    -6.9379e-05      0.008 (TRAH MIcro)
    7     dE    -3.821301e-05     3.112490e-03    -7.6415e-05      0.012 (TRAH MIcro)
    7     dE    -3.884536e-05     3.332426e-03    -7.7676e-05      0.014 (TRAH MIcro)
    7     dE    -4.050600e-05     3.626754e-03    -8.0978e-05      0.020 (TRAH MIcro)
    7     dE    -4.653910e-05     4.593806e-03    -9.2840e-05      0.051 (TRAH MIcro)
    7     dE    -5.686894e-05     3.334204e-03    -1.1240e-04      0.109 (TRAH MIcro)
    7     dE    -5.802838e-05     3.110746e-03    -1.1461e-04      0.112 (TRAH MIcro)
    7     dE    -7.549968e-05     2.582760e-03    -1.4682e-04      0.169 (TRAH MIcro)
    7     dE    -7.593591e-05     2.544403e-03    -1.4759e-04      0.170 (TRAH MIcro)
    7     dE    -7.704106e-05     3.030563e-03    -1.4953e-04      0.174 (TRAH MIcro)
    7     dE    -8.158057e-05     2.825013e-03    -1.5727e-04      0.193 (TRAH MIcro)
    7     dE    -8.299605e-05     1.717287e-03    -1.5962e-04      0.200 (TRAH MIcro)
    7     dE    -8.317133e-05     1.737785e-03    -1.5991e-04      0.201 (TRAH MIcro)
    7     dE    -8.475882e-05     1.604539e-03    -1.6247e-04      0.208 (TRAH MIcro)
    7     dE    -8.488992e-05     1.492109e-03    -1.6268e-04      0.209 (TRAH MIcro)
    7     dE    -8.586143e-05     1.562614e-03    -1.6425e-04      0.213 (TRAH MIcro)
    7     dE    -8.844361e-05     2.125666e-03    -1.6855e-04      0.222 (TRAH MIcro)
    7     dE    -9.276071e-05     2.675361e-03    -1.7540e-04      0.240 (TRAH MIcro)
    7     dE    -1.028182e-04     4.251001e-03    -1.9128e-04      0.274 (TRAH MIcro)
    7     dE    -1.967743e-04     1.159172e-02    -3.7978e-04      0.576 (TRAH MIcro)
    7     dE    -2.411369e-04     1.085195e-02    -6.2180e-04      0.569 (TRAH MIcro)
    7     dE    -3.254350e-04     9.272647e-03    -1.1142e-03      0.573 (TRAH MIcro)
    7     dE    -4.856829e-04     1.451997e-02    -1.9575e-03      0.576 (TRAH MIcro)
 ---------------------------------
          TRAH Step control 
 ---------------------------------
  predicted energy change =    -4.856829128447e-04
  actual energy  change   =     5.419535876456e-03
  energy change ratio     = -11.158589
  old trust radius        = 0.576000
  new trust radius        = 0.385920
  reject step?            = YES
    8       -295.291705893931     1.143058e-02                     0.386 (TRAH MAcro)  Yes
    9       -295.291705893931     1.415684e-01                     0.386 (TRAH MAcro)   No
WARNING: 68 diagonal Hessian elements are negative!
WARNING : negative HOMO - LUMO gap : -0.041131
WARNING : negative HOMO - LUMO gap : -0.041131
    9     dE    -5.155862e-03     2.698773e-02    -1.0242e-02      0.082 (TRAH MIcro)
    9     dE    -5.168559e-03     2.687859e-02    -1.0266e-02      0.083 (TRAH MIcro)
    9     dE    -5.248480e-03     2.607288e-02    -1.0403e-02      0.095 (TRAH MIcro)
    9     dE    -5.265031e-03     2.572930e-02    -1.0428e-02      0.099 (TRAH MIcro)
    9     dE    -5.399694e-03     2.760379e-02    -1.0569e-02      0.148 (TRAH MIcro)
    9     dE    -5.805770e-03     2.819920e-02    -1.0906e-02      0.254 (TRAH MIcro)
    9     dE    -6.401952e-03     2.563114e-02    -1.1176e-02      0.382 (TRAH MIcro)
    9     dE    -6.465367e-03     2.280726e-02    -1.1730e-02      0.386 (TRAH MIcro)
    9     dE    -6.507546e-03     2.337890e-02    -1.2081e-02      0.386 (TRAH MIcro)
    9     dE    -6.831430e-03     2.320034e-02    -1.5151e-02      0.386 (TRAH MIcro)
    9     dE    -7.181457e-03     4.522246e-02    -1.8176e-02      0.379 (TRAH MIcro)
    9     dE    -7.929028e-03     3.280052e-02    -2.6468e-02      0.384 (TRAH MIcro)
    9     dE    -7.450559e-03     2.744295e-02    -4.4399e-02      0.282 (TRAH MIcro)
    9     dE    -9.418597e-03     3.778652e-02    -4.6748e-02      0.386 (TRAH MIcro)
    9     dE    -5.946603e-03     1.799296e-02    -8.9153e-02      0.136 (TRAH MIcro)
    9     dE    -7.194559e-03     2.678866e-02    -9.1941e-02      0.204 (TRAH MIcro)
    9     dE    -1.024243e-02     3.158484e-02    -9.5388e-02      0.316 (TRAH MIcro)
    9     dE    -1.326948e-02     3.347675e-02    -1.0329e-01      0.386 (TRAH MIcro)
    9     dE    -1.361992e-02     3.835865e-02    -1.0879e-01      0.386 (TRAH MIcro)
    9     dE    -5.253859e-03     1.356144e-02    -2.1899e-01      0.080 (TRAH MIcro)
    9     dE    -5.330604e-03     3.109061e-03    -2.2044e-01      0.082 (TRAH MIcro)
   10       -295.296827840951     1.294458e-02                     0.463 (TRAH MAcro)   No
WARNING: 20 diagonal Hessian elements are negative!
WARNING : negative HOMO - LUMO gap : -0.001978
WARNING : negative HOMO - LUMO gap : -0.001978
   10     dE    -5.082672e-05     1.093116e-02    -1.0165e-04      0.009 (TRAH MIcro)
   10     dE    -8.232021e-05     1.544495e-02    -1.6447e-04      0.032 (TRAH MIcro)
   10     dE    -1.202559e-04     1.881971e-02    -2.3956e-04      0.063 (TRAH MIcro)
   10     dE    -1.463757e-04     2.034251e-02    -2.8938e-04      0.108 (TRAH MIcro)
   10     dE    -2.920238e-04     1.865726e-02    -5.4642e-04      0.262 (TRAH MIcro)
[...]
  116     dE    -1.625638e-10     1.557547e-05                           (NR   MIcro)
  117       -295.864610177697     1.557878e-05                           (NR   MAcro)
WARNING: 5 diagonal Hessian elements are negative!
WARNING : negative HOMO - LUMO gap : -0.000037
  117     dE    -1.932924e-11     1.473198e-05                           (NR   MIcro)
  117     dE    -2.726431e-11     1.326564e-05                           (NR   MIcro)
  117     dE    -2.896000e-11     1.273976e-05                           (NR   MIcro)
  117     dE    -2.953316e-11     1.256933e-05                           (NR   MIcro)
  117     dE    -2.985959e-11     1.235674e-05                           (NR   MIcro)
  117     dE    -5.373757e-11     8.696331e-06                           (NR   MIcro)
  117     dE    -5.449258e-11     8.397153e-06                           (NR   MIcro)
  117     dE    -5.746045e-11     7.811015e-06                           (NR   MIcro)
  117     dE    -6.545957e-11     5.860410e-06                           (NR   MIcro)
  117     dE    -6.699541e-11     5.369729e-06                           (NR   MIcro)
  117     dE    -7.026050e-11     3.839235e-06                           (NR   MIcro)
  117     dE    -7.301938e-11     2.768528e-06                           (NR   MIcro)
  117     dE    -7.381989e-11     2.491780e-06                           (NR   MIcro)
  117     dE    -7.472525e-11     2.058532e-06                           (NR   MIcro)
  117     dE    -7.538568e-11     1.830831e-06                           (NR   MIcro)
  117     dE    -7.618373e-11     1.990598e-06                           (NR   MIcro)
  117     dE    -7.755165e-11     2.654238e-06                           (NR   MIcro)
  117     dE    -7.917824e-11     3.302029e-06                           (NR   MIcro)
  117     dE    -8.031947e-11     3.741237e-06                           (NR   MIcro)
  117     dE    -8.473679e-11     5.136831e-06                           (NR   MIcro)
  117     dE    -9.462072e-11     7.435025e-06                           (NR   MIcro)
  117     dE    -1.105645e-10     1.095891e-05                           (NR   MIcro)
  117     dE    -1.303312e-10     1.500800e-05                           (NR   MIcro)
  117     dE    -1.595806e-10     1.776807e-05                           (NR   MIcro)
  118       -295.864610177857     1.777168e-05                           (NR   MAcro)
WARNING: 5 diagonal Hessian elements are negative!
WARNING : negative HOMO - LUMO gap : -0.000037
  118     dE    -1.982068e-11     1.701500e-05                           (NR   MIcro)
  118     dE    -2.760746e-11     1.537688e-05                           (NR   MIcro)
  118     dE    -2.879436e-11     1.510488e-05                           (NR   MIcro)
  118     dE    -2.939492e-11     1.489867e-05                           (NR   MIcro)
  118     dE    -2.979027e-11     1.479766e-05                           (NR   MIcro)
  118     dE    -4.319202e-11     1.313688e-05                           (NR   MIcro)
  118     dE    -4.914353e-11     1.075056e-05                           (NR   MIcro)
  118     dE    -5.581853e-11     9.361172e-06                           (NR   MIcro)
  118     dE    -6.722151e-11     6.732954e-06                           (NR   MIcro)
  118     dE    -7.391006e-11     5.099221e-06                           (NR   MIcro)
  118     dE    -7.614345e-11     4.498198e-06                           (NR   MIcro)
  118     dE    -7.921422e-11     3.470957e-06                           (NR   MIcro)
  118     dE    -8.003353e-11     3.091906e-06                           (NR   MIcro)
  118     dE    -8.156330e-11     2.477308e-06                           (NR   MIcro)
  118     dE    -8.257059e-11     2.044182e-06                           (NR   MIcro)
  118     dE    -8.335431e-11     1.813192e-06                           (NR   MIcro)
  118     dE    -8.408254e-11     2.036636e-06                           (NR   MIcro)
  118     dE    -8.506713e-11     2.519144e-06                           (NR   MIcro)
  118     dE    -8.623252e-11     2.882536e-06                           (NR   MIcro)
  118     dE    -9.071903e-11     4.900507e-06                           (NR   MIcro)
  118     dE    -9.348929e-11     5.978362e-06                           (NR   MIcro)
  118     dE    -1.043168e-10     8.447738e-06                           (NR   MIcro)
  118     dE    -1.286131e-10     1.232644e-05                           (NR   MIcro)
  118     dE    -1.571455e-10     1.527998e-05                           (NR   MIcro)
  119       -295.864610178013     1.528338e-05                           (NR   MAcro)
WARNING: 5 diagonal Hessian elements are negative!
WARNING : negative HOMO - LUMO gap : -0.000037
  119     dE    -1.915509e-11     1.440994e-05                           (NR   MIcro)
  119     dE    -2.659328e-11     1.299395e-05                           (NR   MIcro)
  119     dE    -2.816005e-11     1.249657e-05                           (NR   MIcro)
  119     dE    -2.869293e-11     1.233812e-05                           (NR   MIcro)
  119     dE    -2.901144e-11     1.213011e-05                           (NR   MIcro)
  119     dE    -5.232901e-11     8.523538e-06                           (NR   MIcro)
  119     dE    -5.304243e-11     8.232561e-06                           (NR   MIcro)
  119     dE    -5.584020e-11     7.673565e-06                           (NR   MIcro)
  119     dE    -6.353653e-11     5.763334e-06                           (NR   MIcro)
  119     dE    -6.500176e-11     5.287039e-06                           (NR   MIcro)
  119     dE    -6.818473e-11     3.765579e-06                           (NR   MIcro)
  119     dE    -7.083455e-11     2.717478e-06                           (NR   MIcro)
  119     dE    -7.160501e-11     2.445941e-06                           (NR   MIcro)
  119     dE    -7.247667e-11     2.018889e-06                           (NR   MIcro)
  119     dE    -7.311046e-11     1.798001e-06                           (NR   MIcro)
  119     dE    -7.387426e-11     1.948886e-06                           (NR   MIcro)
  119     dE    -7.517281e-11     2.595635e-06                           (NR   MIcro)
  119     dE    -7.657739e-11     3.155276e-06                           (NR   MIcro)
  119     dE    -7.769647e-11     3.615234e-06                           (NR   MIcro)
  119     dE    -8.213249e-11     5.054319e-06                           (NR   MIcro)
  119     dE    -9.504741e-11     8.104776e-06                           (NR   MIcro)
  119     dE    -1.106176e-10     1.150452e-05                           (NR   MIcro)
  119     dE    -1.267446e-10     1.486995e-05                           (NR   MIcro)
  119     dE    -1.544680e-10     1.741712e-05                           (NR   MIcro)
  120       -295.864610178169     1.742079e-05                           (NR   MAcro)
WARNING: 5 diagonal Hessian elements are negative!
WARNING : negative HOMO - LUMO gap : -0.000037
  120     dE    -1.933885e-11     1.669061e-05                           (NR   MIcro)
  120     dE    -2.628075e-11     1.519473e-05                           (NR   MIcro)
  120     dE    -2.733557e-11     1.495294e-05                           (NR   MIcro)
  120     dE    -2.789221e-11     1.475789e-05                           (NR   MIcro)
  120     dE    -2.835645e-11     1.464588e-05                           (NR   MIcro)
  120     dE    -4.075209e-11     1.281226e-05                           (NR   MIcro)
  120     dE    -4.420800e-11     1.126143e-05                           (NR   MIcro)
  120     dE    -5.353543e-11     9.296123e-06                           (NR   MIcro)
  120     dE    -6.172623e-11     7.380869e-06                           (NR   MIcro)
  120     dE    -7.145457e-11     5.004446e-06                           (NR   MIcro)
  120     dE    -7.344749e-11     4.484990e-06                           (NR   MIcro)
  120     dE    -7.658497e-11     3.398905e-06                           (NR   MIcro)
  120     dE    -7.734351e-11     3.035494e-06                           (NR   MIcro)
  120     dE    -7.885116e-11     2.427090e-06                           (NR   MIcro)
  120     dE    -7.995306e-11     1.932762e-06                           (NR   MIcro)
  120     dE    -8.060785e-11     1.779673e-06                           (NR   MIcro)
  120     dE    -8.127038e-11     2.014694e-06                           (NR   MIcro)
  120     dE    -8.221216e-11     2.477297e-06                           (NR   MIcro)
  120     dE    -8.332947e-11     2.836325e-06                           (NR   MIcro)
  120     dE    -8.769910e-11     4.847710e-06                           (NR   MIcro)
  120     dE    -9.033760e-11     5.882557e-06                           (NR   MIcro)
  120     dE    -1.006514e-10     8.277310e-06                           (NR   MIcro)
  120     dE    -1.244079e-10     1.211769e-05                           (NR   MIcro)
  120     dE    -1.521577e-10     1.500213e-05                           (NR   MIcro)
  121       -295.864610178319     1.500560e-05                           (NR   MAcro)
WARNING: 5 diagonal Hessian elements are negative!
WARNING : negative HOMO - LUMO gap : -0.000037
  121     dE    -1.903261e-11     1.409317e-05                           (NR   MIcro)
  121     dE    -2.595847e-11     1.273852e-05                           (NR   MIcro)
  121     dE    -2.741496e-11     1.226643e-05                           (NR   MIcro)
  121     dE    -2.790977e-11     1.211939e-05                           (NR   MIcro)
  121     dE    -2.822112e-11     1.191545e-05                           (NR   MIcro)
  121     dE    -5.097830e-11     8.358459e-06                           (NR   MIcro)
  121     dE    -5.165574e-11     8.073411e-06                           (NR   MIcro)
  121     dE    -5.427784e-11     7.544406e-06                           (NR   MIcro)
  121     dE    -6.169185e-11     5.675705e-06                           (NR   MIcro)
  121     dE    -6.310498e-11     5.212255e-06                           (NR   MIcro)
  121     dE    -6.613929e-11     3.733177e-06                           (NR   MIcro)
  121     dE    -6.875622e-11     2.665150e-06                           (NR   MIcro)
  121     dE    -6.949867e-11     2.398220e-06                           (NR   MIcro)
  121     dE    -7.033483e-11     1.982221e-06                           (NR   MIcro)
  121     dE    -7.093929e-11     1.769007e-06                           (NR   MIcro)
  121     dE    -7.166353e-11     1.899321e-06                           (NR   MIcro)
  121     dE    -7.286887e-11     2.512800e-06                           (NR   MIcro)
  121     dE    -7.404372e-11     2.993819e-06                           (NR   MIcro)
  121     dE    -7.528544e-11     3.522373e-06                           (NR   MIcro)
  121     dE    -7.960950e-11     4.948802e-06                           (NR   MIcro)
  121     dE    -9.264027e-11     7.994207e-06                           (NR   MIcro)
  121     dE    -1.092438e-10     1.203104e-05                           (NR   MIcro)
  121     dE    -1.236394e-10     1.453778e-05                           (NR   MIcro)
  121     dE    -1.497172e-10     1.722853e-05                           (NR   MIcro)
  122       -295.864610178468     1.723184e-05                           (NR   MAcro)
WARNING: 5 diagonal Hessian elements are negative!
WARNING : negative HOMO - LUMO gap : -0.000037
  122     dE    -1.868064e-11     1.627417e-05                           (NR   MIcro)
  122     dE    -2.494279e-11     1.479141e-05                           (NR   MIcro)
  122     dE    -2.580747e-11     1.459016e-05                           (NR   MIcro)
  122     dE    -2.630110e-11     1.442199e-05                           (NR   MIcro)
  122     dE    -2.701779e-11     1.431461e-05                           (NR   MIcro)
  122     dE    -3.814205e-11     1.300166e-05                           (NR   MIcro)
  122     dE    -4.092661e-11     1.176541e-05                           (NR   MIcro)
  122     dE    -5.302503e-11     8.872694e-06                           (NR   MIcro)
  122     dE    -5.921205e-11     7.295668e-06                           (NR   MIcro)
  122     dE    -6.917798e-11     4.900736e-06                           (NR   MIcro)
  122     dE    -7.111080e-11     4.401412e-06                           (NR   MIcro)
  122     dE    -7.415042e-11     3.326803e-06                           (NR   MIcro)
  122     dE    -7.487296e-11     2.974336e-06                           (NR   MIcro)
  122     dE    -7.632537e-11     2.379240e-06                           (NR   MIcro)
  122     dE    -7.744841e-11     1.849699e-06                           (NR   MIcro)
  122     dE    -7.808577e-11     1.749024e-06                           (NR   MIcro)
  122     dE    -7.871492e-11     2.018548e-06                           (NR   MIcro)
  122     dE    -7.964674e-11     2.461788e-06                           (NR   MIcro)
  122     dE    -8.069166e-11     2.799357e-06                           (NR   MIcro)
  122     dE    -8.486680e-11     4.766095e-06                           (NR   MIcro)
  122     dE    -8.737074e-11     5.779889e-06                           (NR   MIcro)
  122     dE    -9.721831e-11     8.104128e-06                           (NR   MIcro)
  122     dE    -1.204343e-10     1.186943e-05                           (NR   MIcro)
  122     dE    -1.474711e-10     1.470542e-05                           (NR   MIcro)
  123       -295.864610178615     1.470915e-05                           (NR   MAcro)
WARNING: 5 diagonal Hessian elements are negative!
WARNING : negative HOMO - LUMO gap : -0.000037
  123     dE    -1.881760e-11     1.380158e-05                           (NR   MIcro)
  123     dE    -2.545674e-11     1.244030e-05                           (NR   MIcro)
  123     dE    -2.672802e-11     1.201346e-05                           (NR   MIcro)
  123     dE    -2.718574e-11     1.187905e-05                           (NR   MIcro)
  123     dE    -2.749159e-11     1.168146e-05                           (NR   MIcro)
  123     dE    -4.978172e-11     8.207480e-06                           (NR   MIcro)
  123     dE    -5.024440e-11     7.946835e-06                           (NR   MIcro)
  123     dE    -5.306991e-11     7.346405e-06                           (NR   MIcro)
  123     dE    -5.997617e-11     5.572225e-06                           (NR   MIcro)
  123     dE    -6.133224e-11     5.110585e-06                           (NR   MIcro)
  123     dE    -6.425886e-11     3.643281e-06                           (NR   MIcro)
  123     dE    -6.674347e-11     2.629152e-06                           (NR   MIcro)
  123     dE    -6.746386e-11     2.366198e-06                           (NR   MIcro)
  123     dE    -6.827499e-11     1.943846e-06                           (NR   MIcro)
  123     dE    -6.883686e-11     1.744160e-06                           (NR   MIcro)
  123     dE    -6.949735e-11     1.838324e-06                           (NR   MIcro)
  123     dE    -7.058292e-11     2.389220e-06                           (NR   MIcro)
  123     dE    -7.167394e-11     2.873012e-06                           (NR   MIcro)
  123     dE    -7.301367e-11     3.436384e-06                           (NR   MIcro)
  123     dE    -7.711396e-11     4.852169e-06                           (NR   MIcro)
  123     dE    -8.670583e-11     7.071412e-06                           (NR   MIcro)
  123     dE    -1.006512e-10     1.058641e-05                           (NR   MIcro)
  123     dE    -1.178316e-10     1.409847e-05                           (NR   MIcro)
  123     dE    -1.440875e-10     1.683092e-05                           (NR   MIcro)
  124       -295.864610178759     1.683436e-05                           (NR   MAcro)
WARNING: 5 diagonal Hessian elements are negative!
WARNING : negative HOMO - LUMO gap : -0.000037
  124     dE    -1.801077e-11     1.600635e-05                           (NR   MIcro)
  124     dE    -2.483958e-11     1.442709e-05                           (NR   MIcro)
  124     dE    -2.581218e-11     1.418789e-05                           (NR   MIcro)
  124     dE    -2.633187e-11     1.400083e-05                           (NR   MIcro)
  124     dE    -2.673570e-11     1.390661e-05                           (NR   MIcro)
  124     dE    -3.840640e-11     1.251819e-05                           (NR   MIcro)
  124     dE    -4.362137e-11     1.034506e-05                           (NR   MIcro)
  124     dE    -4.983649e-11     8.860800e-06                           (NR   MIcro)
  124     dE    -5.963947e-11     6.355280e-06                           (NR   MIcro)
  124     dE    -6.600635e-11     4.840990e-06                           (NR   MIcro)
  124     dE    -6.802906e-11     4.293261e-06                           (NR   MIcro)
  124     dE    -7.079651e-11     3.267793e-06                           (NR   MIcro)
  124     dE    -7.149831e-11     2.913264e-06                           (NR   MIcro)
  124     dE    -7.289001e-11     2.345218e-06                           (NR   MIcro)
  124     dE    -7.397237e-11     1.825700e-06                           (NR   MIcro)
  124     dE    -7.459245e-11     1.740212e-06                           (NR   MIcro)
  124     dE    -7.521309e-11     1.986347e-06                           (NR   MIcro)
  124     dE    -7.616613e-11     2.474825e-06                           (NR   MIcro)
  124     dE    -7.723125e-11     2.824101e-06                           (NR   MIcro)
  124     dE    -8.157227e-11     4.903873e-06                           (NR   MIcro)
  124     dE    -8.385251e-11     5.798974e-06                           (NR   MIcro)
  124     dE    -9.296980e-11     7.932291e-06                           (NR   MIcro)
  124     dE    -1.153403e-10     1.176217e-05                           (NR   MIcro)
  124     dE    -1.417470e-10     1.447529e-05                           (NR   MIcro)

               *****************************************************
               *                      ERROR                        *
               *        SCF NOT CONVERGED AFTER 2961 CYCLES         *
               *****************************************************

[file orca_leanscf/orca_leanscf.cpp, line 306, Process 7]: Error (ORCA_LEANSCF): unfortunately, the SCF has not converged. There may be a way out but we have to stop here 
[file orca_leanscf/orca_leanscf.cpp, line 306, Process 1]: Error (ORCA_LEANSCF): unfortunately, the SCF has not converged. There may be a way out but we have to stop here 
[file orca_leanscf/orca_leanscf.cpp, line 306, Process 2]: Error (ORCA_LEANSCF): unfortunately, the SCF has not converged. There may be a way out but we have to stop here 
[file orca_leanscf/orca_leanscf.cpp, line 306, Process 3]: Error (ORCA_LEANSCF): unfortunately, the SCF has not converged. There may be a way out but we have to stop here 
[file orca_leanscf/orca_leanscf.cpp, line 306, Process 5]: Error (ORCA_LEANSCF): unfortunately, the SCF has not converged. There may be a way out but we have to stop here 
[file orca_leanscf/orca_leanscf.cpp, line 306, Process 0]: Error (ORCA_LEANSCF): unfortunately, the SCF has not converged. There may be a way out but we have to stop here 
[file orca_leanscf/orca_leanscf.cpp, line 306, Process 6]: Error (ORCA_LEANSCF): unfortunately, the SCF has not converged. There may be a way out but we have to stop here 
[file orca_leanscf/orca_leanscf.cpp, line 306, Process 4]: Error (ORCA_LEANSCF): unfortunately, the SCF has not converged. There may be a way out but we have to stop here 

ORCA finished by error termination in LEANSCF
Calling Command: mpirun -np 8  /opt/orca/orca_leanscf_mpi hex_prism_nn5.00.gbw hex_prism_nn5.00 
[file orca_tools/qcmsg.cpp, line 394]: 
  .... aborting the run

