
                                 *****************
                                 * O   R   C   A *
                                 *****************

                                            #,                                       
                                            ###                                      
                                            ####                                     
                                            #####                                    
                                            ######                                   
                                           ########,                                 
                                     ,,################,,,,,                         
                               ,,#################################,,                 
                          ,,##########################################,,             
                       ,#########################################, ''#####,          
                    ,#############################################,,   '####,        
                  ,##################################################,,,,####,       
                ,###########''''           ''''###############################       
              ,#####''   ,,,,##########,,,,          '''####'''          '####       
            ,##' ,,,,###########################,,,                        '##       
           ' ,,###''''                  '''############,,,                           
         ,,##''                                '''############,,,,        ,,,,,,###''
      ,#''                                            '''#######################'''  
     '                                                          ''''####''''         
             ,#######,   #######,   ,#######,      ##                                
            ,#'     '#,  ##    ##  ,#'     '#,    #''#        ,####,    ,#,          
            ##       ##  ##   ,#'  ##            #'  '#       #'       ,# #          
            ##       ##  #######   ##           ,######,      #####,      #          
            '#,     ,#'  ##    ##  '#,     ,#' ,#      #,     #,   #      #          
             '#######'   ##     ##  '#######'  #'      '#     '####' #    #          



                #########################################################
                #                        -***-                          #
                #          Department of theory and spectroscopy        #
                #                                                       #
                #                      Frank Neese                      #
                #                                                       #
                #     Directorship, Architecture, Infrastructure        #
                #                    SHARK, DRIVERS                     #
                #        Core code/Algorithms in most modules           #
                #                                                       #
                #        Max Planck Institute fuer Kohlenforschung      #
                #                Kaiser Wilhelm Platz 1                 #
                #                 D-45470 Muelheim/Ruhr                 #
                #                      Germany                          #
                #                                                       #
                #                  All rights reserved                  #
                #                        -***-                          #
                #########################################################


                         Program Version 6.1.1  -  RELEASE   -
                                (GIT: $487d211c$)
                          ($2025-11-21 10:33:24 +0100$)
                                                                         
                                  - NO-DMRG VERSION -                    
                                                                         


 With contributions from (in alphabetic order):
[Max-Planck-Institut fuer Kohlenforschung]                               
  Daniel Aravena         : Magnetic Suceptibility                        
  Michael Atanasov       : Ab Initio Ligand Field Theory (pilot matlab implementation)
  Alexander A. Auer      : GIAO ZORA, VPT2 properties, NMR spectrum      
  Ute Becker             : All parallelization in ORCA, NUMFREQ, NUMCALC 
  Giovanni Bistoni       : ED, misc. LED, open-shell LED, HFLD           
  Dmytro Bykov           : pre 5.0 version of the SCF Hessian            
  Marcos Casanova-Páez   : Triplet and SCS-CIS(D). UHF-(DLPNO)-IP/EA/STEOM-CCSD. UHF-CVS-IP/STEOM-CCSD   
  Vijay G. Chilkuri      : MRCI spin determinant printing, contributions to CSF-ICE 
  Pauline Colinet        : FMM embedding                                 
  Dipayan Datta          : RHF DLPNO-CCSD density                        
  Achintya Kumar Dutta   : EOM-CC, STEOM-CC                              
  Nicolas Foglia         : Exact transition moments, OPA infrastructure, MCD improvements    
  Dmitry Ganyushin       : Spin-Orbit,Spin-Spin,Magnetic field MRCI      
  Miquel Garcia-Rates    : C-PCM and meta-GGA Hessian, CCSD/C-PCM, Gaussian charge scheme 
  Tiago L. C. Gouveia    : GS-ROHF, GS-ROCIS                             
  Yang Guo               : DLPNO-NEVPT2, F12-NEVPT2, CIM, IAO-localization        
  Andreas Hansen         : Spin unrestricted coupled pair/coupled cluster methods 
  Ingolf Harden          : AUTO-CI MPn and infrastructure                
  Benjamin Helmich-Paris : MC-RPA, TRAH-(SCF,CASSCF), AVAS, COSX integrals, SCF dyn. polar., MC-PDFT, srDFT 
  Lee Huntington         : MR-EOM, pCC                                   
  Robert Izsak           : Overlap fitted RIJCOSX, COSX-SCS-MP3, EOM     
  Riya Kayal             : Wick's Theorem for AUTO-CI, AUTO-CI UHF-CCSDT 
  Emily Kempfer          : AUTO-CI RHF CISDT and CCSDT, approximate NEVPT4
  Christian Kollmar      : KDIIS, OOCD, Brueckner-CCSD(T), CCSD density, CASPT2, CASPT2-K, improved NEVPT2 
  Axel Koslowski         : Symmetry handling                             
  Simone Kossmann        : meta-GGA functionals, TD-DFT gradient, OOMP2, (MP2 Hessian; deprecated post 5.0) 
  Lucas Lang             : DCDCAS, Hyperfine gauge corrections, ICE-SOC+SSC
  Marvin Lechner         : AUTO-CI (C++ implementation), FIC-MRCC        
  Spencer Leger          : CASSCF response                               
  Dagmar Lenk            : GEPOL surface, SMD, ORCA-2-JSON               
  Dimitrios Liakos       : Extrapolation schemes; Compound Job, Property file
  Dimitrios Manganas     : Further ROCIS development; embedding schemes. LFT, Crystal Embedding 
  Dimitrios Pantazis     : SARC Basis sets                               
  Anastasios Papadopoulos: AUTO-CI, single reference methods and gradients 
  Taras Petrenko         : pre 6.0 DFT Hessian and TD-DFT gradient,  ECA, NRVS 
  Petra Pikulova         : Analytic Raman intensities                    
  Peter Pinski           : DLPNO-MP2, DLPNO-MP2 Gradient                 
  Shashank Vittal Rao    : ES-AILFT, MagRelax                            
  Christoph Reimann      : Effective Core Potentials                     
  Marius Retegan         : Local ZFS, SOC                                
  Christoph Riplinger    : Optimizer, TS searches, QM/MM, DLPNO-CCSD(T), (RO)-DLPNO pert. Triples 
  Michael Roemelt        : Original ROCIS implementation, recursive CI coupling coefficients
  Masaaki Saitow         : Open-shell DLPNO-CCSD energy and density      
  Barbara Sandhoefer     : DKH picture change effects                    
  Yorick L. A. Schmerwitz: GMF and freeze-and-release deltaSCF, NEB S-IDPP initial path                    
  Kantharuban Sivalingam : CASSCF convergence/infrastructure, NEVPT2, NEVPT3, NEVPT4(SD), FIC-MRCI and CEPA variants
  Bernardo de Souza      : ESD, SOC TD-DFT                               
  Georgi L. Stoychev     : AutoAux, RI-MP2 NMR, DLPNO-MP2 response, X2C  
  Van Anh Tran           : RI-MP2 g-tensors                              
  Willem Van den Heuvel  : Paramagnetic NMR                              
  Zikuan Wang            : NOTCH, Electric field optimization            
  Frank Wennmohs         : Technical directorship and infrastructure     
  Hang Xu                : AUTO-CI-Response properties                   
                                                                         
[FACCTs GmbH]                                                            
  Markus Bursch, Nicolas Foglia, Miquel Garcia-Rates, Ingolf Harden, Hagen Neugebauer, Anastasios Papadopoulos, 
  Christoph Riplinger, Bernardo de Souza, Georgi L. Stoychev                                                    
                                                                 
  APM, various basis sets, CI-OPT, improved COSX, DLPNO-Multilevel,           
  DOCKER, DRACO, updates on ESD, Fragmentator, GOAT, IRC, LR-CPCM, L-BFGS, MBIS, meta-GGA TD-DFT gradient, ML-optimized integration grids, 
  MM, NACMEs, nearIR, NEB, NEB-TS, NL-DFT gradient (VV10), 2- and 3-layer-ONIOM, interface openCOSMO-RS, QMMM,   
  Crystal-QMMM, RESP, rigid body optimization, SF, symmetry and pop. for TD-DFT, various functionals, SOLVATOR                                   
                                                                         
[Other institutions]                                                     
  V. Asgeirsson          : NEB                                           
  Christoph Bannwarth    : sTDA-DFT, sTD-DFT, PBEh-3c, B97-3c, D3        
  Giovanni Bistoni       : ETS/NOCV, ADLD/ADEX, COVALED                  
  Martin Brehm           : Molecular dynamics                            
  Ronald Cardenas        : ETS/NOCV                                      
  Martina Colucci        : COVALED                                       
  Sebastian Ehlert       : rSCAN, r2SCAN, r2SCAN-3c, D4, dhf basis sets  
  Marvin Friede          : D4 for Fr, Ra, Ac-Lr                          
  Lars Goerigk           : TD-DFT with DH, B97 family of functionals     
  Stefan Grimme          : VdW corrections, initial TS optimization, DFT functionals, gCP, sTDA/sTD-DF 
  Waldemar Hujo          : DFT-NL                                        
  H. Jonsson             : NEB                                           
  Holger Kruse           : gCP                                           
  Marcel Mueller         : wB97X-3c, vDZP basis set                      
  Hagen Neugebauer       : wr2SCAN, Native XTB                           
  Gianluca Regni         : ADLD/ADEX                                     
  Tobias Risthaus        : pre 6.0 range-separated hybrid DFT and stability analysis
  Lukas Wittmann         : regularized MP2, r2SCAN double-hybrids, wr2SCAN        
                                                                         
We gratefully acknowledge several colleagues who have allowed us to      
interface, adapt or use parts of their codes:                            
  Ed Valeev, F. Pavosevic, A. Kumar             : LibInt (2-el integral package), F12 methods 
  Garnet Chan, S. Sharma, J. Yang, R. Olivares  : DMRG                   
  Ulf Ekstrom                                   : XCFun DFT Library      
  Mihaly Kallay                                 : mrcc  (arbitrary order and MRCC methods)
  Frank Weinhold                                : gennbo (NPA and NBO analysis)           
  Simon Mueller                                 : openCOSMO-RS                            
  Christopher J. Cramer and Donald G. Truhlar   : smd solvation model                     
  S Lehtola, MJT Oliveira, MAL Marques          : LibXC Library                           
  Liviu Ungur et al                             : ANISO software                          


 Your calculation uses the libint2 library for the computation of 2-el integrals
 For citations please refer to: http://libint.valeyev.net

 Your ORCA version has been built with support for libXC version: 7.0.0
 For citations please refer to: https://libxc.gitlab.io

 This ORCA versions uses:
   CBLAS   interface :  Fast vector & matrix operations
   LAPACKE interface :  Fast linear algebra routines
   SCALAPACK package :  Parallel linear algebra routines
   Shared memory     :  Shared parallel matrices
   BLAS/LAPACK       :  OpenBLAS 0.3.29  USE64BITINT DYNAMIC_ARCH NO_AFFINITY Zen SINGLE_THREADED
        Core in use  :  Zen
   Copyright (c) 2011-2014, The OpenBLAS Project


  ***********************************
  * Starting time: Thu Apr 23 08:49:49 2026
  * Host name:     vmi3233575
  * Process ID:    1068986
  * Working dir.:  /root/b12_scan/jobs/cuboctahedron_nn1.60
  ***********************************

NOTE: MaxCore=2500 MB was set to SCF,MP2,MDCI,CIPSI,MRCI,RASCI and CIS
      => If you want to overwrite this, your respective input block should be placed after the MaxCore statement
Your calculation utilizes the atom-pairwise dispersion correction
with the Becke-Johnson damping scheme (D3BJ)


================================================================================

----- Orbital basis set information -----
Your calculation utilizes the basis: def2-SVP
   F. Weigend and R. Ahlrichs, Phys. Chem. Chem. Phys. 7, 3297 (2005).

----- AuxJ basis set information -----
Your calculation utilizes the auxiliary basis: def2/J
   H-Rn: F. Weigend, Phys. Chem. Chem. Phys. 8, 1057 (2006).
   Fr-Lr: K. Eichkorn, F. Weigend, O. Treutler, R. Ahlrichs; Theor. Chem. Acc. 97, 119 (1997).

================================================================================
                                        WARNINGS
                       Please study these warnings very carefully!
================================================================================


WARNING: Geometry Optimization
  ===> : Switching off AutoStart
         For restart on a previous wavefunction, please use MOREAD

================================================================================
                                       INPUT FILE
================================================================================
NAME = cuboctahedron_nn1.60.inp
|  1> ! BP86 def2-SVP def2/J RI Opt TightSCF D3BJ
|  2> ! SlowConv
|  3> 
|  4> %pal nprocs 8 end
|  5> %maxcore 2500
|  6> 
|  7> %geom
|  8>   MaxIter 300
|  9> end
| 10> 
| 11> * xyz 0 1
| 12> B      0.00000000     -1.13137085     -1.13137085
| 13> B     -1.13137085      0.00000000     -1.13137085
| 14> B     -1.13137085     -1.13137085      0.00000000
| 15> B      0.00000000     -1.13137085      1.13137085
| 16> B     -1.13137085      0.00000000      1.13137085
| 17> B     -1.13137085      1.13137085      0.00000000
| 18> B      0.00000000      1.13137085     -1.13137085
| 19> B      1.13137085      0.00000000     -1.13137085
| 20> B      1.13137085     -1.13137085      0.00000000
| 21> B      0.00000000      1.13137085      1.13137085
| 22> B      1.13137085      0.00000000      1.13137085
| 23> B      1.13137085      1.13137085      0.00000000
| 24> *
| 25> 
| 26>                          ****END OF INPUT****
================================================================================

                       *****************************
                       * Geometry Optimization Run *
                       *****************************

Geometry optimization settings:
Update method            Update   .... BFGS
Choice of coordinates    CoordSys .... (2022) Redundant Internals
Initial Hessian          InHess   .... Almloef's Model
Max. no of cycles        MaxIter  .... 300

Convergence Tolerances:
Energy Change            TolE     ....  5.0000e-06 Eh
Max. Gradient            TolMAXG  ....  3.0000e-04 Eh/bohr
RMS Gradient             TolRMSG  ....  1.0000e-04 Eh/bohr
Max. Displacement        TolMAXD  ....  4.0000e-03 bohr
RMS Displacement         TolRMSD  ....  2.0000e-03 bohr
Strict Convergence                .... False

------------------------------------------------------------------------------
                        ORCA OPTIMIZATION COORDINATE SETUP
------------------------------------------------------------------------------

The optimization will be done in redundant internal coordinates (2022)
Making redundant internal coordinates   ...  (2022 redundants) done
Evaluating the initial hessian          ...  (Almloef) done
Evaluating the coordinates              ...  done
Calculating the B-matrix                .... done
Calculating the G-matrix                .... done
The number of degrees of freedom        ....  240

    -----------------------------------------------------------------
                    Redundant Internal Coordinates


    -----------------------------------------------------------------
         Definition                    Initial Value    Approx d2E/dq
    -----------------------------------------------------------------
      1. B(B   1,B   0)                  1.6000         0.387554   
      2. B(B   2,B   1)                  1.6000         0.387554   
      3. B(B   2,B   0)                  1.6000         0.387554   
      4. B(B   3,B   2)                  1.6000         0.387554   
      5. B(B   4,B   2)                  1.6000         0.387554   
      6. B(B   4,B   3)                  1.6000         0.387554   
      7. B(B   5,B   1)                  1.6000         0.387554   
      8. B(B   5,B   4)                  1.6000         0.387554   
      9. B(B   6,B   5)                  1.6000         0.387554   
     10. B(B   6,B   1)                  1.6000         0.387554   
     11. B(B   7,B   6)                  1.6000         0.387554   
     12. B(B   7,B   0)                  1.6000         0.387554   
     13. B(B   8,B   7)                  1.6000         0.387554   
     14. B(B   8,B   3)                  1.6000         0.387554   
     15. B(B   8,B   0)                  1.6000         0.387554   
     16. B(B   9,B   5)                  1.6000         0.387554   
     17. B(B   9,B   4)                  1.6000         0.387554   
     18. B(B  10,B   9)                  1.6000         0.387554   
     19. B(B  10,B   8)                  1.6000         0.387554   
     20. B(B  10,B   3)                  1.6000         0.387554   
     21. B(B  11,B  10)                  1.6000         0.387554   
     22. B(B  11,B   9)                  1.6000         0.387554   
     23. B(B  11,B   7)                  1.6000         0.387554   
     24. B(B  11,B   6)                  1.6000         0.387554   
     25. A(B   7,B   0,B   8)           60.0000         0.380075   
     26. A(B   1,B   0,B   7)           90.0000         0.380075   
     27. A(B   2,B   0,B   7)          120.0000         0.380075   
     28. A(B   2,B   0,B   8)           90.0000         0.380075   
     29. A(B   1,B   0,B   2)           60.0000         0.380075   
     30. A(B   1,B   0,B   8)          120.0000         0.380075   
     31. A(B   2,B   1,B   5)           90.0000         0.380075   
     32. A(B   0,B   1,B   2)           60.0000         0.380075   
     33. A(B   2,B   1,B   6)          120.0000         0.380075   
     34. A(B   0,B   1,B   5)          120.0000         0.380075   
     35. A(B   5,B   1,B   6)           60.0000         0.380075   
     36. A(B   0,B   1,B   6)           90.0000         0.380075   
     37. A(B   1,B   2,B   3)          120.0000         0.380075   
     38. A(B   0,B   2,B   4)          120.0000         0.380075   
     39. A(B   0,B   2,B   3)           90.0000         0.380075   
     40. A(B   3,B   2,B   4)           60.0000         0.380075   
     41. A(B   0,B   2,B   1)           60.0000         0.380075   
     42. A(B   1,B   2,B   4)           90.0000         0.380075   
     43. A(B   4,B   3,B   8)          120.0000         0.380075   
     44. A(B   4,B   3,B  10)           90.0000         0.380075   
     45. A(B   8,B   3,B  10)           60.0000         0.380075   
     46. A(B   2,B   3,B  10)          120.0000         0.380075   
     47. A(B   2,B   3,B   8)           90.0000         0.380075   
     48. A(B   2,B   3,B   4)           60.0000         0.380075   
     49. A(B   5,B   4,B   9)           60.0000         0.380075   
     50. A(B   2,B   4,B   5)           90.0000         0.380075   
     51. A(B   3,B   4,B   5)          120.0000         0.380075   
     52. A(B   3,B   4,B   9)           90.0000         0.380075   
     53. A(B   2,B   4,B   9)          120.0000         0.380075   
     54. A(B   2,B   4,B   3)           60.0000         0.380075   
     55. A(B   6,B   5,B   9)           90.0000         0.380075   
     56. A(B   4,B   5,B   9)           60.0000         0.380075   
     57. A(B   1,B   5,B   9)          120.0000         0.380075   
     58. A(B   4,B   5,B   6)          120.0000         0.380075   
     59. A(B   1,B   5,B   6)           60.0000         0.380075   
     60. A(B   1,B   5,B   4)           90.0000         0.380075   
     61. A(B   7,B   6,B  11)           60.0000         0.380075   
     62. A(B   5,B   6,B  11)           90.0000         0.380075   
     63. A(B   1,B   6,B  11)          120.0000         0.380075   
     64. A(B   5,B   6,B   7)          120.0000         0.380075   
     65. A(B   1,B   6,B   7)           90.0000         0.380075   
     66. A(B   1,B   6,B   5)           60.0000         0.380075   
     67. A(B   8,B   7,B  11)           90.0000         0.380075   
     68. A(B   6,B   7,B  11)           60.0000         0.380075   
     69. A(B   0,B   7,B  11)          120.0000         0.380075   
     70. A(B   0,B   7,B   6)           90.0000         0.380075   
     71. A(B   6,B   7,B   8)          120.0000         0.380075   
     72. A(B   0,B   7,B   8)           60.0000         0.380075   
     73. A(B   7,B   8,B  10)           90.0000         0.380075   
     74. A(B   3,B   8,B  10)           60.0000         0.380075   
     75. A(B   0,B   8,B  10)          120.0000         0.380075   
     76. A(B   3,B   8,B   7)          120.0000         0.380075   
     77. A(B   0,B   8,B   7)           60.0000         0.380075   
     78. A(B   0,B   8,B   3)           90.0000         0.380075   
     79. A(B   5,B   9,B  11)           90.0000         0.380075   
     80. A(B   4,B   9,B  11)          120.0000         0.380075   
     81. A(B   5,B   9,B  10)          120.0000         0.380075   
     82. A(B   4,B   9,B  10)           90.0000         0.380075   
     83. A(B   4,B   9,B   5)           60.0000         0.380075   
     84. A(B  10,B   9,B  11)           60.0000         0.380075   
     85. A(B   8,B  10,B   9)          120.0000         0.380075   
     86. A(B   3,B  10,B   9)           90.0000         0.380075   
     87. A(B   3,B  10,B   8)           60.0000         0.380075   
     88. A(B   9,B  10,B  11)           60.0000         0.380075   
     89. A(B   8,B  10,B  11)           90.0000         0.380075   
     90. A(B   3,B  10,B  11)          120.0000         0.380075   
     91. A(B   6,B  11,B   7)           60.0000         0.380075   
     92. A(B   9,B  11,B  10)           60.0000         0.380075   
     93. A(B   7,B  11,B  10)           90.0000         0.380075   
     94. A(B   6,B  11,B  10)          120.0000         0.380075   
     95. A(B   7,B  11,B   9)          120.0000         0.380075   
     96. A(B   6,B  11,B   9)           90.0000         0.380075   
     97. D(B   6,B   1,B   0,B   2)    125.2644         0.010000   
     98. D(B   5,B   1,B   0,B   7)    -54.7356         0.010000   
     99. D(B   2,B   1,B   0,B   8)    -70.5288         0.010000   
    100. D(B   5,B   1,B   0,B   2)     70.5288         0.010000   
    101. D(B   5,B   1,B   0,B   8)      0.0000         0.010000   
    102. D(B   2,B   1,B   0,B   7)   -125.2644         0.010000   
    103. D(B   1,B   2,B   0,B   7)     70.5288         0.010000   
    104. D(B   3,B   2,B   1,B   0)     70.5288         0.010000   
    105. D(B   3,B   2,B   1,B   5)    -54.7356         0.010000   
    106. D(B   3,B   2,B   0,B   7)    -54.7356         0.010000   
    107. D(B   1,B   2,B   0,B   8)    125.2644         0.010000   
    108. D(B   0,B   2,B   1,B   6)    -70.5288         0.010000   
    109. D(B   3,B   2,B   0,B   1)   -125.2644         0.010000   
    110. D(B   4,B   2,B   0,B   1)    -70.5288         0.010000   
    111. D(B   4,B   2,B   1,B   0)    125.2644         0.010000   
    112. D(B   3,B   2,B   1,B   6)      0.0000         0.010000   
    113. D(B   3,B   2,B   0,B   8)      0.0000         0.010000   
    114. D(B   0,B   2,B   1,B   5)   -125.2644         0.010000   
    115. D(B  10,B   3,B   2,B   0)     54.7356         0.010000   
    116. D(B   8,B   3,B   2,B   4)   -125.2644         0.010000   
    117. D(B   4,B   3,B   2,B   0)    125.2644         0.010000   
    118. D(B   4,B   3,B   2,B   1)     70.5288         0.010000   
    119. D(B   8,B   3,B   2,B   1)    -54.7356         0.010000   
    120. D(B   8,B   3,B   2,B   0)      0.0000         0.010000   
    121. D(B   2,B   4,B   3,B   8)     70.5288         0.010000   
    122. D(B   3,B   4,B   2,B   1)   -125.2644         0.010000   
    123. D(B   5,B   4,B   2,B   3)    125.2644         0.010000   
    124. D(B   9,B   4,B   2,B   0)      0.0000         0.010000   
    125. D(B   5,B   4,B   2,B   0)     54.7356         0.010000   
    126. D(B   3,B   4,B   2,B   0)    -70.5288         0.010000   
    127. D(B   5,B   4,B   2,B   1)      0.0000         0.010000   
    128. D(B   5,B   4,B   3,B   8)      0.0000         0.010000   
    129. D(B   5,B   4,B   3,B   2)    -70.5288         0.010000   
    130. D(B   5,B   4,B   3,B  10)     54.7356         0.010000   
    131. D(B   2,B   4,B   3,B  10)    125.2644         0.010000   
    132. D(B   9,B   4,B   3,B   2)   -125.2644         0.010000   
    133. D(B   6,B   5,B   4,B   9)     70.5288         0.010000   
    134. D(B   6,B   5,B   4,B   2)    -54.7356         0.010000   
    135. D(B   1,B   5,B   4,B   3)     54.7356         0.010000   
    136. D(B   6,B   5,B   1,B   2)    125.2644         0.010000   
    137. D(B   9,B   5,B   1,B   0)      0.0000         0.010000   
    138. D(B   6,B   5,B   1,B   0)     70.5288         0.010000   
    139. D(B   4,B   5,B   1,B   6)   -125.2644         0.010000   
    140. D(B   4,B   5,B   1,B   2)      0.0000         0.010000   
    141. D(B   1,B   5,B   4,B   9)    125.2644         0.010000   
    142. D(B   6,B   5,B   4,B   3)      0.0000         0.010000   
    143. D(B   4,B   5,B   1,B   0)    -54.7356         0.010000   
    144. D(B   1,B   5,B   4,B   2)      0.0000         0.010000   
    145. D(B  11,B   6,B   5,B   1)   -125.2644         0.010000   
    146. D(B   1,B   6,B   5,B   4)     70.5288         0.010000   
    147. D(B   1,B   6,B   5,B   9)    125.2644         0.010000   
    148. D(B   7,B   6,B   5,B   4)      0.0000         0.010000   
    149. D(B  11,B   6,B   1,B   0)    -54.7356         0.010000   
    150. D(B   7,B   6,B   5,B   9)     54.7356         0.010000   
    151. D(B   7,B   6,B   1,B   5)    125.2644         0.010000   
    152. D(B   7,B   6,B   1,B   2)     54.7356         0.010000   
    153. D(B   7,B   6,B   5,B   1)    -70.5288         0.010000   
    154. D(B   5,B   6,B   1,B   0)   -125.2644         0.010000   
    155. D(B   7,B   6,B   1,B   0)      0.0000         0.010000   
    156. D(B   5,B   6,B   1,B   2)    -70.5288         0.010000   
    157. D(B   6,B   7,B   0,B   8)   -125.2644         0.010000   
    158. D(B   6,B   7,B   0,B   2)    -54.7356         0.010000   
    159. D(B   6,B   7,B   0,B   1)      0.0000         0.010000   
    160. D(B   8,B   7,B   6,B  11)     70.5288         0.010000   
    161. D(B   0,B   7,B   6,B   1)      0.0000         0.010000   
    162. D(B   0,B   7,B   6,B  11)    125.2644         0.010000   
    163. D(B   0,B   7,B   6,B   5)     54.7356         0.010000   
    164. D(B   8,B   7,B   6,B   5)      0.0000         0.010000   
    165. D(B  11,B   7,B   0,B   1)     54.7356         0.010000   
    166. D(B   8,B   7,B   0,B   2)     70.5288         0.010000   
    167. D(B   8,B   7,B   0,B   1)    125.2644         0.010000   
    168. D(B   8,B   7,B   6,B   1)    -54.7356         0.010000   
    169. D(B  10,B   8,B   7,B   0)   -125.2644         0.010000   
    170. D(B   3,B   8,B   7,B  11)     54.7356         0.010000   
    171. D(B   3,B   8,B   7,B   6)      0.0000         0.010000   
    172. D(B   0,B   8,B   7,B  11)    125.2644         0.010000   
    173. D(B   0,B   8,B   7,B   6)     70.5288         0.010000   
    174. D(B   7,B   8,B   3,B  10)    -70.5288         0.010000   
    175. D(B   7,B   8,B   3,B   4)      0.0000         0.010000   
    176. D(B   7,B   8,B   3,B   2)     54.7356         0.010000   
    177. D(B   0,B   8,B   3,B  10)   -125.2644         0.010000   
    178. D(B   0,B   8,B   3,B   4)    -54.7356         0.010000   
    179. D(B   0,B   8,B   3,B   2)      0.0000         0.010000   
    180. D(B  10,B   8,B   0,B   1)      0.0000         0.010000   
    181. D(B   7,B   8,B   0,B   2)   -125.2644         0.010000   
    182. D(B   3,B   8,B   7,B   0)    -70.5288         0.010000   
    183. D(B   7,B   8,B   0,B   1)    -70.5288         0.010000   
    184. D(B   3,B   8,B   0,B   7)    125.2644         0.010000   
    185. D(B   3,B   8,B   0,B   2)      0.0000         0.010000   
    186. D(B   3,B   8,B   0,B   1)     54.7356         0.010000   
    187. D(B  11,B   9,B   5,B   1)     54.7356         0.010000   
    188. D(B  10,B   9,B   5,B   6)    -54.7356         0.010000   
    189. D(B  10,B   9,B   5,B   4)     70.5288         0.010000   
    190. D(B  10,B   9,B   5,B   1)      0.0000         0.010000   
    191. D(B   4,B   9,B   5,B   6)   -125.2644         0.010000   
    192. D(B   4,B   9,B   5,B   1)    -70.5288         0.010000   
    193. D(B  11,B   9,B   4,B   2)      0.0000         0.010000   
    194. D(B  10,B   9,B   4,B   5)   -125.2644         0.010000   
    195. D(B  10,B   9,B   4,B   3)      0.0000         0.010000   
    196. D(B  10,B   9,B   4,B   2)    -54.7356         0.010000   
    197. D(B   5,B   9,B   4,B   3)    125.2644         0.010000   
    198. D(B   5,B   9,B   4,B   2)     70.5288         0.010000   
    199. D(B   8,B  10,B   9,B  11)    -70.5288         0.010000   
    200. D(B   8,B  10,B   9,B   4)     54.7356         0.010000   
    201. D(B   3,B  10,B   9,B  11)   -125.2644         0.010000   
    202. D(B   3,B  10,B   9,B   5)    -54.7356         0.010000   
    203. D(B   3,B  10,B   9,B   4)      0.0000         0.010000   
    204. D(B  11,B  10,B   8,B   0)    -54.7356         0.010000   
    205. D(B   9,B  10,B   8,B   7)     54.7356         0.010000   
    206. D(B   9,B  10,B   8,B   3)    -70.5288         0.010000   
    207. D(B   9,B  10,B   8,B   0)      0.0000         0.010000   
    208. D(B   3,B  10,B   8,B   7)    125.2644         0.010000   
    209. D(B   3,B  10,B   8,B   0)     70.5288         0.010000   
    210. D(B  11,B  10,B   3,B   2)      0.0000         0.010000   
    211. D(B   9,B  10,B   3,B   8)    125.2644         0.010000   
    212. D(B   9,B  10,B   3,B   4)      0.0000         0.010000   
    213. D(B   9,B  10,B   3,B   2)     54.7356         0.010000   
    214. D(B   8,B  10,B   9,B   5)      0.0000         0.010000   
    215. D(B   8,B  10,B   3,B   4)   -125.2644         0.010000   
    216. D(B   8,B  10,B   3,B   2)    -70.5288         0.010000   
    217. D(B  10,B  11,B   6,B   1)      0.0000         0.010000   
    218. D(B   9,B  11,B   6,B   7)   -125.2644         0.010000   
    219. D(B   9,B  11,B   6,B   5)      0.0000         0.010000   
    220. D(B   9,B  11,B   6,B   1)    -54.7356         0.010000   
    221. D(B   7,B  11,B   6,B   5)    125.2644         0.010000   
    222. D(B   6,B  11,B   7,B   0)    -70.5288         0.010000   
    223. D(B   7,B  11,B   6,B   1)     70.5288         0.010000   
    224. D(B   7,B  11,B  10,B   9)   -125.2644         0.010000   
    225. D(B   7,B  11,B  10,B   3)    -54.7356         0.010000   
    226. D(B   6,B  11,B  10,B   9)    -70.5288         0.010000   
    227. D(B   6,B  11,B  10,B   8)     54.7356         0.010000   
    228. D(B   7,B  11,B   9,B  10)     70.5288         0.010000   
    229. D(B   7,B  11,B   9,B   5)    -54.7356         0.010000   
    230. D(B   7,B  11,B   9,B   4)      0.0000         0.010000   
    231. D(B   6,B  11,B   9,B  10)    125.2644         0.010000   
    232. D(B   6,B  11,B   9,B   5)      0.0000         0.010000   
    233. D(B   6,B  11,B   9,B   4)     54.7356         0.010000   
    234. D(B   6,B  11,B  10,B   3)      0.0000         0.010000   
    235. D(B  10,B  11,B   7,B   0)     54.7356         0.010000   
    236. D(B   9,B  11,B   7,B   8)    -54.7356         0.010000   
    237. D(B   9,B  11,B   7,B   6)     70.5288         0.010000   
    238. D(B   7,B  11,B  10,B   8)      0.0000         0.010000   
    239. D(B   9,B  11,B   7,B   0)      0.0000         0.010000   
    240. D(B   6,B  11,B   7,B   8)   -125.2644         0.010000   
    -----------------------------------------------------------------

Number of atoms                         .... 12
Number of degrees of freedom            .... 240


         *************************************************************
         *                GEOMETRY OPTIMIZATION CYCLE   1            *
         *************************************************************
---------------------------------
CARTESIAN COORDINATES (ANGSTROEM)
---------------------------------
  B      0.000000   -1.131371   -1.131371
  B     -1.131371    0.000000   -1.131371
  B     -1.131371   -1.131371    0.000000
  B      0.000000   -1.131371    1.131371
  B     -1.131371    0.000000    1.131371
  B     -1.131371    1.131371    0.000000
  B      0.000000    1.131371   -1.131371
  B      1.131371    0.000000   -1.131371
  B      1.131371   -1.131371    0.000000
  B      0.000000    1.131371    1.131371
  B      1.131371    0.000000    1.131371
  B      1.131371    1.131371    0.000000

----------------------------
CARTESIAN COORDINATES (A.U.)
----------------------------
  NO LB      ZA    FRAG     MASS         X           Y           Z
   0 B     5.0000    0    10.810    0.000000   -2.137981   -2.137981
   1 B     5.0000    0    10.810   -2.137981    0.000000   -2.137981
   2 B     5.0000    0    10.810   -2.137981   -2.137981    0.000000
   3 B     5.0000    0    10.810    0.000000   -2.137981    2.137981
   4 B     5.0000    0    10.810   -2.137981    0.000000    2.137981
   5 B     5.0000    0    10.810   -2.137981    2.137981    0.000000
   6 B     5.0000    0    10.810    0.000000    2.137981   -2.137981
   7 B     5.0000    0    10.810    2.137981    0.000000   -2.137981
   8 B     5.0000    0    10.810    2.137981   -2.137981    0.000000
   9 B     5.0000    0    10.810    0.000000    2.137981    2.137981
  10 B     5.0000    0    10.810    2.137981    0.000000    2.137981
  11 B     5.0000    0    10.810    2.137981    2.137981    0.000000

--------------------------------
INTERNAL COORDINATES (ANGSTROEM)
--------------------------------
 B      0   0   0     0.000000000000     0.00000000     0.00000000
 B      1   0   0     1.600000000144     0.00000000     0.00000000
 B      1   2   0     1.600000000144    60.00000000     0.00000000
 B      3   1   2     1.600000000144    90.00000000   234.73561032
 B      3   1   2     1.600000000144   120.00000000   289.47122063
 B      2   1   3     1.600000000144   120.00000000    70.52877937
 B      2   1   3     1.600000000144    90.00000000   125.26438968
 B      1   2   3     1.600000000144    90.00000000   234.73561032
 B      1   2   3     1.600000000144   120.00000000   289.47122063
 B      5   3   1     1.600000000144   120.00000000     0.00000000
 B      4   3   1     1.600000000144   120.00000000    54.73561032
 B      7   2   1     1.600000000144   120.00000000   305.26438968

---------------------------
INTERNAL COORDINATES (A.U.)
---------------------------
 B      0   0   0     0.000000000000     0.00000000     0.00000000
 B      1   0   0     3.023561814545     0.00000000     0.00000000
 B      1   2   0     3.023561814545    60.00000000     0.00000000
 B      3   1   2     3.023561814545    90.00000000   234.73561032
 B      3   1   2     3.023561814545   120.00000000   289.47122063
 B      2   1   3     3.023561814545   120.00000000    70.52877937
 B      2   1   3     3.023561814545    90.00000000   125.26438968
 B      1   2   3     3.023561814545    90.00000000   234.73561032
 B      1   2   3     3.023561814545   120.00000000   289.47122063
 B      5   3   1     3.023561814545   120.00000000     0.00000000
 B      4   3   1     3.023561814545   120.00000000    54.73561032
 B      7   2   1     3.023561814545   120.00000000   305.26438968

---------------------
BASIS SET INFORMATION
---------------------
There are 1 groups of distinct atoms

 Group   1 Type B   : 7s4p1d contracted to 3s2p1d pattern {511/31/1}

Atom   0B    basis set group =>   1
Atom   1B    basis set group =>   1
Atom   2B    basis set group =>   1
Atom   3B    basis set group =>   1
Atom   4B    basis set group =>   1
Atom   5B    basis set group =>   1
Atom   6B    basis set group =>   1
Atom   7B    basis set group =>   1
Atom   8B    basis set group =>   1
Atom   9B    basis set group =>   1
Atom  10B    basis set group =>   1
Atom  11B    basis set group =>   1
---------------------------------
AUXILIARY/J BASIS SET INFORMATION
---------------------------------
There are 1 groups of distinct atoms

 Group   1 Type B   : 12s5p4d2f1g contracted to 6s4p3d1f1g pattern {711111/2111/211/2/1}

Atom   0B    basis set group =>   1
Atom   1B    basis set group =>   1
Atom   2B    basis set group =>   1
Atom   3B    basis set group =>   1
Atom   4B    basis set group =>   1
Atom   5B    basis set group =>   1
Atom   6B    basis set group =>   1
Atom   7B    basis set group =>   1
Atom   8B    basis set group =>   1
Atom   9B    basis set group =>   1
Atom  10B    basis set group =>   1
Atom  11B    basis set group =>   1


           ************************************************************
           *        Program running with 8 parallel MPI-processes     *
           *              working on a common directory               *
           ************************************************************
------------------------------------------------------------------------------
                             ORCA STARTUP CALCULATIONS
                           -- RI-GTO INTEGRALS CHOSEN --
------------------------------------------------------------------------------
------------------------------------------------------------------------------
                   ___                                                        
                  /   \      - P O W E R E D   B Y -                         
                 /     \                                                     
                 |  |  |   _    _      __       _____    __    __             
                 |  |  |  | |  | |    /  \     |  _  \  |  |  /  |          
                  \  \/   | |  | |   /    \    | | | |  |  | /  /          
                 / \  \   | |__| |  /  /\  \   | |_| |  |  |/  /          
                |  |  |   |  __  | /  /__\  \  |    /   |      \           
                |  |  |   | |  | | |   __   |  |    \   |  |\   \          
                \     /   | |  | | |  |  |  |  | |\  \  |  | \   \       
                 \___/    |_|  |_| |__|  |__|  |_| \__\ |__|  \__/        
                                                                              
                      - O R C A' S   B I G   F R I E N D -                    
                                      &                                       
                       - I N T E G R A L  F E E D E R -                       
                                                                              
 v1 FN, 2020, v2 2021, v3 2022-2024                                           
------------------------------------------------------------------------------


----------------------
SHARK INTEGRAL PACKAGE
----------------------

Number of atoms                             ...     12
Number of basis functions                   ...    168
Number of shells                            ...     72
Maximum angular momentum                    ...      2
Integral batch strategy                     ... SHARK/LIBINT Hybrid
RI-J (if used) integral strategy            ... SPLIT-RIJ (Revised 2003 algorithm where possible)
Printlevel                                  ...      1
Contraction scheme used                     ... SEGMENTED contraction
Prescreening option                         ... SCHWARTZ
   Thresh                                   ... 2.500e-11
   Tcut                                     ... 2.500e-12
   Tpresel                                  ... 2.500e-12 
Coulomb Range Separation                    ... NOT USED
Exchange Range Separation                   ... NOT USED
Multipole approximations                    ... NOT USED
Finite Nucleus Model                        ... NOT USED
CABS basis                                  ... NOT available
Auxiliary Coulomb fitting basis             ... AVAILABLE
   # of basis functions in Aux-J            ...    588
   # of shells in Aux-J                     ...    180
   Maximum angular momentum in Aux-J        ...      4
Auxiliary J/K fitting basis                 ... NOT available
Auxiliary Correlation fitting basis         ... NOT available
Auxiliary 'external' fitting basis          ... NOT available

Checking pre-screening integrals            ... done (  0.0 sec) Dimension = 72
   => SHARK Basis and OBASIS are compatible. Storing Pre-screening
Shell pair information
Shell pair cut-off parameter TPreSel        ...   2.5e-12
Total number of shell pairs                 ...      2628
Shell pairs after pre-screening             ...      2598
Total number of primitive shell pairs       ...     10596
Primitive shell pairs kept                  ...      8208
          la=0 lb=0:    636 shell pairs
          la=1 lb=0:    864 shell pairs
          la=1 lb=1:    300 shell pairs
          la=2 lb=0:    432 shell pairs
          la=2 lb=1:    288 shell pairs
          la=2 lb=2:     78 shell pairs

Checking whether 4 symmetric matrices of dimension 168 fit in memory
:Max Core in MB      =   2500.00
 MB in use           =      6.97
 MB left             =   2493.03
 MB needed           =      0.43
 Data fit in memory  = YES
Calculating RI/J V-Matrix + Cholesky decomp.... done (  0.0 sec)
Calculating Nuclear repulsion               ... done (  0.0 sec) ENN=    407.976509670015 Eh

Diagonalization of the overlap matrix:
Smallest eigenvalue                        ... 1.236e-05
Time for diagonalization                   ...    0.004 sec
Threshold for overlap eigenvalues          ... 1.000e-07
Number of eigenvalues below threshold      ... 0
Time for construction of square roots      ...    0.002 sec
Total time needed                          ...    0.010 sec

-------------------
DFT GRID GENERATION
-------------------

General Integration Accuracy     IntAcc      ... 4.388
Radial Grid Type                 RadialGrid  ... OptM3 with GC (2021)
Angular Grid (max. ang.)         AngularGrid ... 4 (Lebedev-302)
Angular grid pruning method      GridPruning ... 4 (adaptive)
Weight generation scheme         WeightScheme... mBecke (2022)
Basis function cutoff            BFCut       ... 1.0000e-11
Integration weight cutoff        WCut        ... 1.0000e-14
Partially contracted basis set               ... off
Rotationally invariant grid construction     ... off
Angular grids for H and He will be reduced by one unit

Total number of grid points                  ...    69348
Total number of batches                      ...     1088
Average number of points per batch           ...       63
Average number of grid points per atom       ...     5779
Grids setup in   1.0 sec
Initializing property integral containers    ... done (  0.0 sec)

SHARK setup successfully completed in   1.3 seconds

Maximum memory used throughout the entire STARTUP-calculation: 19.7 MB


           ************************************************************
           *        Program running with 8 parallel MPI-processes     *
           *              working on a common directory               *
           ************************************************************
-------------------------------------------------------------------------------
                                 ORCA GUESS
                   Start orbitals & Density for SCF / CASSCF
-------------------------------------------------------------------------------

------------
SCF SETTINGS
------------
Hamiltonian:
 Density Functional     Method          .... DFT(GTOs)
 Exchange Functional    Exchange        .... B88
   X-Alpha parameter    XAlpha          ....  0.666667
   Becke's b parameter  XBeta           ....  0.004200
 Correlation Functional Correlation     .... P86
 LDA part of GGA corr.  LDAOpt          .... PW91-LDA
 Gradients option       PostSCFGGA      .... off
   NL short-range parameter             ....  4.400000
 RI-approximation to the Coulomb term is turned on
   Number of AuxJ basis functions       .... 588


General Settings:
 Integral files         IntName         .... cuboctahedron_nn1.60
 Hartree-Fock type      HFTyp           .... RHF
 Total Charge           Charge          ....    0
 Multiplicity           Mult            ....    1
 Number of Electrons    NEL             ....   60
 Basis Dimension        Dim             ....  168
 Nuclear Repulsion      ENuc            ....    407.9765096700 Eh

Convergence Acceleration:
 AO-DIIS                CNVDIIS         .... on
   Start iteration      DIISMaxIt       ....     0
   Startup error        DIISStart       ....  0.200000
   # of expansion vecs  DIISMaxEq       ....     5
   Bias factor          DIISBfac        ....   1.050
   Max. coefficient     DIISMaxC        ....  10.000
 MO-DIIS                CNVKDIIS        .... off
 Trust-Rad. Augm. Hess. CNVTRAH         .... auto
   Auto Start mean grad. ratio tolernc. ....  1.125000
   Auto Start start iteration           ....    50
   Auto Start num. interpolation iter.  ....    10
   Max. Number of Micro iterations      ....    24
   Max. Number of Macro iterations      .... Maxiter - #DIIS iter
   Number of Davidson start vectors     ....     2
   Converg. threshold    (grad. norm)   ....   1.000e-05
   Grad. Scal. Fac. for Micro threshold ....   0.100
   Minimum threshold for Micro iter.    ....   1.000e-02
   NR start threshold (gradient norm)   ....   1.000e-04
   Initial trust radius                 ....   0.400
   Minimum AH scaling param. (alpha)    ....   1.000
   Maximum AH scaling param. (alpha)    .... 1000.000
   Quad. conv. algorithm                .... NR
   White noise on init. David. guess    .... on
   Maximum white noise                  ....   0.010
   Pseudo random numbers                .... off
   Inactive MOs                         .... canonical
   Orbital update algorithm             .... Taylor
   Preconditioner                       .... Diag
   Full preconditioner red. dimension   ....   250
 SOSCF                 CNVSOSCF           .... on
   Start iteration     SOSCFMaxIt         ....   150
   Startup grad/error  SOSCFStart         ....  0.001000
   Hessian update      SOSCFHessUp        .... L-BFGS
   Autom. constraints  SOSCFAutoConstrain .... off
 Level Shifting         CNVShift        .... on
   Level shift para.    LevelShift      ....    0.2500
   Turn off err/grad.   ShiftErr        ....    0.0000
 Zerner damping         CNVZerner       .... off
 Static damping         CNVDamp         .... on
   Fraction old density DampFac         ....    0.8500
   Max. Damping (<1)    DampMax         ....    0.9800
   Min. Damping (>=0)   DampMin         ....    0.0000
   Turn off err/grad.   DampErr         ....    0.0300

SCF Procedure:
 Maximum # iterations   MaxIter         ....   125
 SCF integral mode      SCFMode         .... Direct
   Integral package                     .... SHARK and LIBINT hybrid scheme
 Reset frequency        DirectResetFreq ....    20
 Integral Threshold     Thresh          ....  2.500e-11 Eh
 Primitive CutOff       TCut            ....  2.500e-12 Eh

Convergence Tolerance:
 Convergence Check Mode ConvCheckMode   .... Total+1el-Energy
 Convergence forced     ConvForced      .... 0
 Energy Change          TolE            ....  1.000e-08 Eh
 1-El. energy change                    ....  1.000e-05 Eh
 Orbital Gradient       TolG            ....  1.000e-05
 Orbital Rotation angle TolX            ....  1.000e-05
 DIIS Error             TolErr          ....  5.000e-07

------------------------------
INITIAL GUESS: MODEL POTENTIAL
------------------------------
Loading Hartree-Fock densities                     ... done
Calculating cut-offs                               ... done
Initializing the effective Hamiltonian             ... done
Setting up the integral package (SHARK)            ... done
Starting the Coulomb interaction                   ... done (   0.0 sec)
Making the grid                                    ... done (   0.4 sec)
Mapping shells                                     ... done
Starting the XC term evaluation                    ... done (   0.1 sec)
  promolecular density results
     # of electrons  =     60.002419289
     EX              =    -46.421370888
     EC              =     -2.093405197
     EX+EC           =    -48.514776085
Transforming the Hamiltonian                       ... done (   0.0 sec)
Diagonalizing the Hamiltonian                      ... done (   0.0 sec)
Back transforming the eigenvectors                 ... done (   0.0 sec)
Now organizing SCF variables                       ... done
                      ------------------
                      INITIAL GUESS DONE (   0.5 sec)
                      ------------------
             **** ENERGY FILE WAS UPDATED (cuboctahedron_nn1.60.en.tmp) ****
Finished Guess after   1.1 sec
Maximum memory used throughout the entire GUESS-calculation: 9.8 MB


           ************************************************************
           *        Program running with 8 parallel MPI-processes     *
           *              working on a common directory               *
           ************************************************************

-------------------------------------------------------------------------------------------
                                      ORCA LEAN-SCF
                              memory conserving SCF solver
-------------------------------------------------------------------------------------------

----------------------------------------D-I-I-S--------------------------------------------
Iteration    Energy (Eh)           Delta-E    RMSDP     MaxDP     DIISErr   Damp  Time(sec)
-------------------------------------------------------------------------------------------
               ***  Starting incremental Fock matrix formation  ***
    1    -296.6988578901292612     0.00e+00  7.39e-02  1.05e+00  1.62e-01  0.850   0.5
Warning: op=0 Small HOMO/LUMO gap (  -0.032) - skipping pre-diagonalization
         Will do a full diagonalization
    2    -296.9049398391758814    -2.06e-01  8.10e-02  1.01e+00  1.15e-01  0.850   0.6
                               ***Turning on AO-DIIS***
    3    -297.0259077448328071    -1.21e-01  2.57e-02  2.94e-01  6.88e-02  0.850   0.9
    4    -297.0958498507798140    -6.99e-02  1.11e-02  1.19e-01  4.90e-02  0.850   0.8
    5    -297.1437188462616632    -4.79e-02  9.33e-03  7.13e-02  3.85e-02  0.850   0.5
    6    -297.1801799450902308    -3.65e-02  9.07e-03  7.49e-02  3.19e-02  0.850   0.4
    7    -297.2095650616590774    -2.94e-02  8.38e-03  7.41e-02  2.70e-02  0.850   0.6
    8    -297.2339203882610263    -2.44e-02  4.95e-02  4.24e-01  2.29e-02  0.000   0.5
    9    -297.3635678721046816    -1.30e-01  2.58e-03  2.11e-02  1.47e-03  0.000   0.4
                              *** Initializing SOSCF ***
---------------------------------------S-O-S-C-F--------------------------------------
Iteration    Energy (Eh)           Delta-E    RMSDP     MaxDP     MaxGrad    Time(sec)
--------------------------------------------------------------------------------------
   10    -297.3636480802706501    -8.02e-05  1.72e-03  1.76e-02  4.01e-04     0.6
               *** Restarting incremental Fock matrix formation ***
   11    -297.3636929388809449    -4.49e-05  4.06e-03  2.82e-02  1.13e-03     4.4
               *** Scaled step length from 0.317423 to 0.200000 ***
   12    -297.3637830300784799    -9.01e-05  5.54e-02  4.81e-01  9.89e-04     3.5
   13    -297.3646314890357871    -8.48e-04  5.00e-02  4.87e-01  2.07e-03     2.1
   14    -297.3649077512091026    -2.76e-04  3.97e-03  3.95e-02  1.61e-03     1.6
   15    -297.3650638352640954    -1.56e-04  4.56e-03  4.98e-02  5.45e-04     0.6
   16    -297.3650916965088982    -2.79e-05  3.31e-03  3.66e-02  3.75e-04     1.0
   17    -297.3651087370627693    -1.70e-05  2.36e-03  2.37e-02  3.16e-04     0.5
   18    -297.3651166228095235    -7.89e-06  5.97e-03  7.19e-02  2.17e-04     2.4
   19    -297.3651316108105220    -1.50e-05  5.23e-03  4.45e-02  3.38e-04     0.8
   20    -297.3651421930253491    -1.06e-05  8.96e-03  8.98e-02  3.53e-04     0.4
   21    -297.3651419249780474     2.68e-07  3.49e-03  3.10e-02  5.65e-04     1.0
   22    -297.3651571876849857    -1.53e-05  1.08e-03  9.06e-03  9.07e-05     0.9
   23    -297.3651574546473739    -2.67e-07  3.59e-04  3.32e-03  1.43e-04     0.9
   24    -297.3651581567452240    -7.02e-07  6.08e-04  5.75e-03  9.85e-05     0.4
   25    -297.3651579582017348     1.99e-07  2.96e-04  2.31e-03  9.80e-05     0.4
   26    -297.3651584573616447    -4.99e-07  4.31e-05  4.61e-04  7.90e-06     0.7
   27    -297.3651584592763584    -1.91e-09  4.15e-05  3.62e-04  1.48e-05     0.5
                 **** Energy Check signals convergence ****

               *****************************************************
               *                     SUCCESS                       *
               *           SCF CONVERGED AFTER  27 CYCLES          *
               *****************************************************

             **** ENERGY FILE WAS UPDATED (cuboctahedron_nn1.60.en.tmp) ****

----------------
TOTAL SCF ENERGY
----------------

Total Energy       :       -297.36515846486736 Eh           -8091.71734 eV

Components:
Nuclear Repulsion  :        407.97650967001516 Eh           11101.60522 eV
Electronic Energy  :       -705.34166813488241 Eh          -19193.32256 eV
One Electron Energy:      -1202.55440499895894 Eh          -32723.16897 eV
Two Electron Energy:        497.21273686407648 Eh           13529.84641 eV

Virial components:
Potential Energy   :       -592.39951364630224 Eh          -16120.01029 eV
Kinetic Energy     :        295.03435518143493 Eh            8028.29296 eV
Virial Ratio       :          2.00790010804674

DFT components:
N(Alpha)           :       30.000205667096 electrons
N(Beta)            :       30.000205667096 electrons
N(Total)           :       60.000411334191 electrons
E(X)               :      -46.873815341342 Eh       
E(C)               :       -2.126082737109 Eh       
E(XC)              :      -48.999898078451 Eh       

---------------
SCF CONVERGENCE
---------------

  Last Energy change         ...    1.9147e-09  Tolerance :   1.0000e-08
  Last MAX-Density change    ...    3.6177e-04  Tolerance :   1.0000e-07
  Last RMS-Density change    ...    4.1539e-05  Tolerance :   5.0000e-09
  Last DIIS Error            ...    4.0104e-04  Tolerance :   5.0000e-07
  Last Orbital Gradient      ...    1.4759e-05  Tolerance :   1.0000e-05
  Last Orbital Rotation      ...    6.6432e-05  Tolerance :   1.0000e-05


----------------
ORBITAL ENERGIES
----------------

  NO   OCC          E(Eh)            E(eV) 
   0   2.0000      -6.594588      -179.4479 
   1   2.0000      -6.594532      -179.4463 
   2   2.0000      -6.594516      -179.4459 
   3   2.0000      -6.594470      -179.4447 
   4   2.0000      -6.567733      -178.7171 
   5   2.0000      -6.567615      -178.7139 
   6   2.0000      -6.567145      -178.7011 
   7   2.0000      -6.567140      -178.7010 
   8   2.0000      -6.567053      -178.6986 
   9   2.0000      -6.567049      -178.6985 
  10   2.0000      -6.566408      -178.6810 
  11   2.0000      -6.566355      -178.6796 
  12   2.0000      -0.798712       -21.7341 
  13   2.0000      -0.634570       -17.2675 
  14   2.0000      -0.629706       -17.1352 
  15   2.0000      -0.629701       -17.1350 
  16   2.0000      -0.474442       -12.9102 
  17   2.0000      -0.473781       -12.8922 
  18   2.0000      -0.473776       -12.8921 
  19   2.0000      -0.445656       -12.1269 
  20   2.0000      -0.437131       -11.8949 
  21   2.0000      -0.415120       -11.2960 
  22   2.0000      -0.364439        -9.9169 
  23   2.0000      -0.297461        -8.0943 
  24   2.0000      -0.296358        -8.0643 
  25   2.0000      -0.296356        -8.0642 
  26   2.0000      -0.239758        -6.5241 
  27   2.0000      -0.239753        -6.5240 
  28   2.0000      -0.239220        -6.5095 
  29   2.0000      -0.157826        -4.2947 
  30   0.0000      -0.167695        -4.5632 
  31   0.0000      -0.167692        -4.5631 
  32   0.0000      -0.134839        -3.6692 
  33   0.0000      -0.126400        -3.4395 
  34   0.0000      -0.126398        -3.4395 
  35   0.0000      -0.077505        -2.1090 
  36   0.0000      -0.076241        -2.0746 
  37   0.0000      -0.074891        -2.0379 
  38   0.0000      -0.074888        -2.0378 
  39   0.0000      -0.070734        -1.9248 
  40   0.0000       0.105449         2.8694 
*Only the first 10 virtual orbitals were printed.

                    ********************************
                    * MULLIKEN POPULATION ANALYSIS *
                    ********************************

-----------------------
MULLIKEN ATOMIC CHARGES
-----------------------
   0 B :   -0.096688
   1 B :    0.193375
   2 B :   -0.096725
   3 B :   -0.096755
   4 B :    0.193484
   5 B :   -0.096727
   6 B :   -0.096642
   7 B :    0.193461
   8 B :   -0.096731
   9 B :   -0.096783
  10 B :    0.193430
  11 B :   -0.096698
Sum of atomic charges:    0.0000000

--------------------------------
MULLIKEN REDUCED ORBITAL CHARGES
--------------------------------
  0 B s       :     2.743047  s :     2.743047
      pz      :     0.771645  p :     2.280502
      px      :     0.817929
      py      :     0.690928
      dz2     :     0.017675  d :     0.073138
      dxz     :     0.012228
      dyz     :     0.015354
      dx2y2   :     0.017569
      dxy     :     0.010312

  1 B s       :     2.387819  s :     2.387819
      pz      :     0.748385  p :     2.330663
      px      :     0.748395
      py      :     0.833883
      dz2     :     0.016730  d :     0.088142
      dxz     :     0.014026
      dyz     :     0.019957
      dx2y2   :     0.017473
      dxy     :     0.019957

  2 B s       :     2.743018  s :     2.743018
      pz      :     0.817940  p :     2.280567
      px      :     0.771674
      py      :     0.690952
      dz2     :     0.018484  d :     0.073140
      dxz     :     0.012228
      dyz     :     0.010313
      dx2y2   :     0.016761
      dxy     :     0.015354

  3 B s       :     2.743041  s :     2.743041
      pz      :     0.771665  p :     2.280577
      px      :     0.817934
      py      :     0.690978
      dz2     :     0.017675  d :     0.073138
      dxz     :     0.012228
      dyz     :     0.015354
      dx2y2   :     0.017569
      dxy     :     0.010312

  4 B s       :     2.387725  s :     2.387725
      pz      :     0.748385  p :     2.330648
      px      :     0.748385
      py      :     0.833878
      dz2     :     0.016730  d :     0.088143
      dxz     :     0.014026
      dyz     :     0.019958
      dx2y2   :     0.017473
      dxy     :     0.019957

  5 B s       :     2.743068  s :     2.743068
      pz      :     0.817936  p :     2.280521
      px      :     0.771639
      py      :     0.690946
      dz2     :     0.018483  d :     0.073138
      dxz     :     0.012228
      dyz     :     0.010313
      dx2y2   :     0.016761
      dxy     :     0.015354

  6 B s       :     2.742969  s :     2.742969
      pz      :     0.771676  p :     2.280535
      px      :     0.817927
      py      :     0.690933
      dz2     :     0.017675  d :     0.073137
      dxz     :     0.012228
      dyz     :     0.015354
      dx2y2   :     0.017568
      dxy     :     0.010312

  7 B s       :     2.387769  s :     2.387769
      pz      :     0.748386  p :     2.330629
      px      :     0.748371
      py      :     0.833871
      dz2     :     0.016729  d :     0.088141
      dxz     :     0.014026
      dyz     :     0.019957
      dx2y2   :     0.017473
      dxy     :     0.019956

  8 B s       :     2.743071  s :     2.743071
      pz      :     0.817933  p :     2.280523
      px      :     0.771652
      py      :     0.690939
      dz2     :     0.018483  d :     0.073138
      dxz     :     0.012228
      dyz     :     0.010312
      dx2y2   :     0.016761
      dxy     :     0.015354

  9 B s       :     2.743096  s :     2.743096
      pz      :     0.771658  p :     2.280549
      px      :     0.817932
      py      :     0.690958
      dz2     :     0.017675  d :     0.073139
      dxz     :     0.012228
      dyz     :     0.015354
      dx2y2   :     0.017569
      dxy     :     0.010312

 10 B s       :     2.387770  s :     2.387770
      pz      :     0.748402  p :     2.330657
      px      :     0.748371
      py      :     0.833884
      dz2     :     0.016730  d :     0.088143
      dxz     :     0.014026
      dyz     :     0.019957
      dx2y2   :     0.017473
      dxy     :     0.019957

 11 B s       :     2.743010  s :     2.743010
      pz      :     0.817937  p :     2.280549
      px      :     0.771654
      py      :     0.690959
      dz2     :     0.018483  d :     0.073139
      dxz     :     0.012228
      dyz     :     0.010313
      dx2y2   :     0.016761
      dxy     :     0.015354



                     *******************************
                     * LOEWDIN POPULATION ANALYSIS *
                     *******************************

----------------------
LOEWDIN ATOMIC CHARGES
----------------------
   0 B :   -0.031723
   1 B :    0.063443
   2 B :   -0.031756
   3 B :   -0.031733
   4 B :    0.063450
   5 B :   -0.031725
   6 B :   -0.031691
   7 B :    0.063487
   8 B :   -0.031709
   9 B :   -0.031747
  10 B :    0.063435
  11 B :   -0.031731

-------------------------------
LOEWDIN REDUCED ORBITAL CHARGES
-------------------------------
  0 B s       :     2.617195  s :     2.617195
      pz      :     0.767347  p :     2.242109
      px      :     0.825615
      py      :     0.649147
      dz2     :     0.043667  d :     0.172420
      dxz     :     0.030811
      dyz     :     0.026018
      dx2y2   :     0.044468
      dxy     :     0.027456

  1 B s       :     2.562009  s :     2.562009
      pz      :     0.662589  p :     2.158886
      px      :     0.662584
      py      :     0.833714
      dz2     :     0.038670  d :     0.215662
      dxz     :     0.022710
      dyz     :     0.056093
      dx2y2   :     0.042097
      dxy     :     0.056092

  2 B s       :     2.617202  s :     2.617202
      pz      :     0.825623  p :     2.242132
      px      :     0.767358
      py      :     0.649152
      dz2     :     0.048919  d :     0.172422
      dxz     :     0.030810
      dyz     :     0.027457
      dx2y2   :     0.039217
      dxy     :     0.026018

  3 B s       :     2.617190  s :     2.617190
      pz      :     0.767354  p :     2.242123
      px      :     0.825619
      py      :     0.649150
      dz2     :     0.043667  d :     0.172420
      dxz     :     0.030811
      dyz     :     0.026018
      dx2y2   :     0.044468
      dxy     :     0.027457

  4 B s       :     2.562006  s :     2.562006
      pz      :     0.662585  p :     2.158880
      px      :     0.662583
      py      :     0.833712
      dz2     :     0.038670  d :     0.215664
      dxz     :     0.022710
      dyz     :     0.056094
      dx2y2   :     0.042097
      dxy     :     0.056093

  5 B s       :     2.617188  s :     2.617188
      pz      :     0.825620  p :     2.242117
      px      :     0.767350
      py      :     0.649148
      dz2     :     0.048918  d :     0.172420
      dxz     :     0.030810
      dyz     :     0.027457
      dx2y2   :     0.039218
      dxy     :     0.026017

  6 B s       :     2.617184  s :     2.617184
      pz      :     0.767337  p :     2.242089
      px      :     0.825613
      py      :     0.649138
      dz2     :     0.043667  d :     0.172419
      dxz     :     0.030810
      dyz     :     0.026017
      dx2y2   :     0.044468
      dxy     :     0.027456

  7 B s       :     2.562003  s :     2.562003
      pz      :     0.662574  p :     2.158851
      px      :     0.662571
      py      :     0.833706
      dz2     :     0.038669  d :     0.215659
      dxz     :     0.022710
      dyz     :     0.056092
      dx2y2   :     0.042096
      dxy     :     0.056091

  8 B s       :     2.617185  s :     2.617185
      pz      :     0.825618  p :     2.242105
      px      :     0.767343
      py      :     0.649143
      dz2     :     0.048917  d :     0.172419
      dxz     :     0.030810
      dyz     :     0.027457
      dx2y2   :     0.039217
      dxy     :     0.026017

  9 B s       :     2.617198  s :     2.617198
      pz      :     0.767356  p :     2.242128
      px      :     0.825618
      py      :     0.649153
      dz2     :     0.043667  d :     0.172421
      dxz     :     0.030811
      dyz     :     0.026018
      dx2y2   :     0.044469
      dxy     :     0.027457

 10 B s       :     2.562010  s :     2.562010
      pz      :     0.662590  p :     2.158893
      px      :     0.662588
      py      :     0.833715
      dz2     :     0.038670  d :     0.215663
      dxz     :     0.022710
      dyz     :     0.056094
      dx2y2   :     0.042097
      dxy     :     0.056093

 11 B s       :     2.617198  s :     2.617198
      pz      :     0.825620  p :     2.242112
      px      :     0.767348
      py      :     0.649145
      dz2     :     0.048919  d :     0.172421
      dxz     :     0.030810
      dyz     :     0.027457
      dx2y2   :     0.039217
      dxy     :     0.026018



                      *****************************
                      * MAYER POPULATION ANALYSIS *
                      *****************************

  NA   - Mulliken gross atomic population
  ZA   - Total nuclear charge
  QA   - Mulliken gross atomic charge
  VA   - Mayer's total valence
  BVA  - Mayer's bonded valence
  FA   - Mayer's free valence

  ATOM       NA         ZA         QA         VA         BVA        FA
  0 B      5.0967     5.0000    -0.0967     4.1563     4.1563     0.0000
  1 B      4.8066     5.0000     0.1934     4.2777     4.2777     0.0000
  2 B      5.0967     5.0000    -0.0967     4.1565     4.1565     0.0000
  3 B      5.0968     5.0000    -0.0968     4.1566     4.1566     0.0000
  4 B      4.8065     5.0000     0.1935     4.2776     4.2776     0.0000
  5 B      5.0967     5.0000    -0.0967     4.1564     4.1564     0.0000
  6 B      5.0966     5.0000    -0.0966     4.1565     4.1565     0.0000
  7 B      4.8065     5.0000     0.1935     4.2776     4.2776     0.0000
  8 B      5.0967     5.0000    -0.0967     4.1564     4.1564     0.0000
  9 B      5.0968     5.0000    -0.0968     4.1564     4.1564     0.0000
 10 B      4.8066     5.0000     0.1934     4.2775     4.2775     0.0000
 11 B      5.0967     5.0000    -0.0967     4.1565     4.1565    -0.0000

  Mayer bond orders larger than 0.100000
B(  0-B ,  1-B ) :   0.7385 B(  0-B ,  2-B ) :   0.5601 B(  0-B ,  3-B ) :   0.3892 
B(  0-B ,  4-B ) :   0.1701 B(  0-B ,  5-B ) :   0.2861 B(  0-B ,  7-B ) :   0.7384 
B(  0-B ,  8-B ) :   0.5600 B(  0-B ,  9-B ) :   0.2085 B(  0-B , 10-B ) :   0.1701 
B(  0-B , 11-B ) :   0.2861 B(  1-B ,  2-B ) :   0.7386 B(  1-B ,  3-B ) :   0.1701 
B(  1-B ,  4-B ) :   0.2604 B(  1-B ,  5-B ) :   0.7384 B(  1-B ,  6-B ) :   0.7385 
B(  1-B ,  7-B ) :   0.2605 B(  1-B ,  8-B ) :   0.1701 B(  1-B ,  9-B ) :   0.1701 
B(  1-B , 10-B ) :   0.1225 B(  1-B , 11-B ) :   0.1701 B(  2-B ,  3-B ) :   0.5601 
B(  2-B ,  4-B ) :   0.7385 B(  2-B ,  6-B ) :   0.2861 B(  2-B ,  7-B ) :   0.1701 
B(  2-B ,  8-B ) :   0.3892 B(  2-B ,  9-B ) :   0.2861 B(  2-B , 10-B ) :   0.1701 
B(  2-B , 11-B ) :   0.2084 B(  3-B ,  4-B ) :   0.7386 B(  3-B ,  5-B ) :   0.2861 
B(  3-B ,  6-B ) :   0.2084 B(  3-B ,  7-B ) :   0.1701 B(  3-B ,  8-B ) :   0.5601 
B(  3-B , 10-B ) :   0.7385 B(  3-B , 11-B ) :   0.2861 B(  4-B ,  5-B ) :   0.7385 
B(  4-B ,  6-B ) :   0.1701 B(  4-B ,  7-B ) :   0.1225 B(  4-B ,  8-B ) :   0.1701 
B(  4-B ,  9-B ) :   0.7385 B(  4-B , 10-B ) :   0.2604 B(  4-B , 11-B ) :   0.1701 
B(  5-B ,  6-B ) :   0.5601 B(  5-B ,  7-B ) :   0.1701 B(  5-B ,  8-B ) :   0.2085 
B(  5-B ,  9-B ) :   0.5600 B(  5-B , 10-B ) :   0.1701 B(  5-B , 11-B ) :   0.3892 
B(  6-B ,  7-B ) :   0.7385 B(  6-B ,  8-B ) :   0.2861 B(  6-B ,  9-B ) :   0.3892 
B(  6-B , 10-B ) :   0.1701 B(  6-B , 11-B ) :   0.5601 B(  7-B ,  8-B ) :   0.7385 
B(  7-B ,  9-B ) :   0.1701 B(  7-B , 10-B ) :   0.2604 B(  7-B , 11-B ) :   0.7385 
B(  8-B ,  9-B ) :   0.2861 B(  8-B , 10-B ) :   0.7384 B(  9-B , 10-B ) :   0.7384 
B(  9-B , 11-B ) :   0.5600 B( 10-B , 11-B ) :   0.7386 

-------
TIMINGS
-------

Total SCF time: 0 days 0 hours 0 min 29 sec 

Total time                  ....      29.795 sec
Sum of individual times     ....      29.062 sec  ( 97.5%)

SCF preparation             ....       1.379 sec  (  4.6%)
Fock matrix formation       ....      21.147 sec  ( 71.0%)
  Startup                   ....       0.123 sec  (  0.6% of F)
  Split-RI-J                ....       5.441 sec  ( 25.7% of F)
  XC integration            ....      12.860 sec  ( 60.8% of F)
    XC Preparation          ....       0.000 sec  (  0.0% of XC)
    Basis function eval.    ....       1.416 sec  ( 11.0% of XC)
    Density eval.           ....       1.302 sec  ( 10.1% of XC)
    XC-Functional eval.     ....       0.178 sec  (  1.4% of XC)
    XC-Potential eval.      ....       1.762 sec  ( 13.7% of XC)
Diagonalization             ....       0.000 sec  (  0.0%)
Density matrix formation    ....       0.531 sec  (  1.8%)
Total Energy calculation    ....       0.928 sec  (  3.1%)
Population analysis         ....       0.065 sec  (  0.2%)
Orbital Transformation      ....       0.049 sec  (  0.2%)
Orbital Orthonormalization  ....       0.000 sec  (  0.0%)
DIIS solution               ....       0.497 sec  (  1.7%)
SOSCF solution              ....       4.466 sec  ( 15.0%)
Finished LeanSCF after  29.8 sec

Maximum memory used throughout the entire LEANSCF-calculation: 10.3 MB


-------------------------------------------------------------------------------
                          DFT DISPERSION CORRECTION                            
                                                                               
                              DFTD3 V3.1  Rev 1                                
                          USING Becke-Johnson damping                          
-------------------------------------------------------------------------------
The BP86 functional is recognized
Active option DFTDOPT                   ...         4   

molecular C6(AA) [au] = 4036.621242 


            DFT-D V3
 parameters
 s6 scaling factor         :     1.0000 
 a1 scaling factor         :     0.3946 
 s8 scaling factor         :     3.2822 
 a2 scaling factor         :     4.8516 
 ad hoc parameters k1-k3   :    16.0000     1.3333    -4.0000 

 Edisp/kcal,au: -24.101667175577  -0.038408447363 
 E6   /kcal   :  -6.871824248 
 E8   /kcal   : -17.229842928 
 % E8         :  71.488178814 

-------------------------   ----------------
Dispersion correction           -0.038408447
-------------------------   ----------------


-------------------------   --------------------
FINAL SINGLE POINT ENERGY      -297.403566912231
-------------------------   --------------------



           ************************************************************
           *        Program running with 8 parallel MPI-processes     *
           *              working on a common directory               *
           ************************************************************
------------------------------------------------------------------------------
                         ORCA SCF GRADIENT CALCULATION
------------------------------------------------------------------------------

Nuc. rep. gradient        (SHARK) ... done (  0.0 sec)
HCore & Overlap gradient  (SHARK) ... done (  0.1 sec)
Split-RIJ-J gradient      (SHARK) ... done (  0.5 sec)
XC gradient                       ... done (  1.6 sec)
Dispersion correction             ... done (  0.3 sec)

-------------------
DISPERSION GRADIENT
-------------------

   1   B   :    0.000000000   -0.000250453   -0.000250453
   2   B   :   -0.000250453    0.000000000   -0.000250453
   3   B   :   -0.000250453   -0.000250453   -0.000000000
   4   B   :    0.000000000   -0.000250453    0.000250453
   5   B   :   -0.000250453    0.000000000    0.000250453
   6   B   :   -0.000250453    0.000250453    0.000000000
   7   B   :    0.000000000    0.000250453   -0.000250453
   8   B   :    0.000250453    0.000000000   -0.000250453
   9   B   :    0.000250453   -0.000250453   -0.000000000
  10   B   :    0.000000000    0.000250453    0.000250453
  11   B   :    0.000250453    0.000000000    0.000250453
  12   B   :    0.000250453    0.000250453   -0.000000000

Difference to translation invariance:
           :   -0.0000000000   -0.0000000000   -0.0000000000

Difference to rotation invariance:
           :    0.0000000000    0.0000000000   -0.0000000000

Norm of the Dispersion gradient    ...    0.0012269629
RMS gradient                       ...    0.0002044938
MAX gradient                       ...    0.0002504528

------------------
CARTESIAN GRADIENT
------------------

   1   B   :    0.000005244    0.041375478    0.049757186
   2   B   :    0.028771106    0.000005887    0.028768866
   3   B   :    0.049754707    0.041371479   -0.000000220
   4   B   :    0.000002597    0.041371323   -0.049753120
   5   B   :    0.028769797    0.000002160   -0.028769424
   6   B   :    0.049754198   -0.041372319   -0.000001849
   7   B   :   -0.000001874   -0.041375220    0.049756557
   8   B   :   -0.028772924   -0.000001581    0.028771793
   9   B   :   -0.049754803    0.041374303   -0.000000273
  10   B   :   -0.000001989   -0.041372501   -0.049755394
  11   B   :   -0.028768637   -0.000005067   -0.028770119
  12   B   :   -0.049757423   -0.041373941   -0.000004003

Difference to translation invariance:
           :   -0.0000000000    0.0000000000   -0.0000000000

Difference to rotation invariance:
           :    0.0000008240    0.0000004086    0.0000028623

Norm of the Cartesian gradient     ...    0.2003014909
RMS gradient                       ...    0.0333835818
MAX gradient                       ...    0.0497574230

-------
TIMINGS
-------

Total SCF gradient time     ....        2.577 sec

Densities                   ....       0.001 sec  (  0.0%)
One electron gradient       ....       0.053 sec  (  2.0%)
RI-J Coulomb gradient       ....       0.489 sec  ( 19.0%)
XC gradient                 ....       1.649 sec  ( 64.0%)

Maximum memory used throughout the entire SCFGRAD-calculation: 29.8 MB
------------------------------------------------------------------------------
                         ORCA GEOMETRY RELAXATION STEP
------------------------------------------------------------------------------

Reading the OPT-File                    .... done
Getting information on internals        .... done
Copying old internal coords+grads       .... done
Making the new internal coordinates     .... (2022 redundants) done
Validating the new internal coordinates .... (2022 redundants) done
Calculating the B-matrix                .... done
Calculating the G,G- and P matrices     .... done
Transforming gradient to internals      .... done
Projecting the internal gradient        .... done
Number of atoms                         ....  12
Number of internal coordinates          .... 240
Current Energy                          ....  -297.403566912 Eh
Current gradient norm                   ....     0.200301491 Eh/bohr
Maximum allowed component of the step   ....  0.300
Current trust radius                    ....  0.300
Evaluating the initial hessian          ....  (Almloef) done
Projecting the Hessian                  .... done
Forming the augmented Hessian           .... done
Diagonalizing the augmented Hessian     .... done
Last element of RFO vector              ....  0.950451431
Lowest eigenvalues of augmented Hessian:
 -0.045382736  0.029095831  0.066317097  0.068051741  0.068319226
Length of the computed step             ....  0.327079407
Warning: the length of the step is outside the trust region - taking restricted step instead
The input lambda is                     ....     0.028096
   iter:   5  x=   -0.083149  g=    0.393704 f(x)=     0.000048
The output lambda is                    ....    -0.083150 (7 iterations)
The final length of the internal step   ....  0.300000000
Converting the step to Cartesian space:
 Initial RMS(Int)=    0.0193649167
Transforming coordinates:
 Iter   0:  RMS(Cart)=    0.0348843326 RMS(Int)=    0.0193582213
done
Storing new coordinates                 .... done

                                .--------------------.
          ----------------------|Geometry convergence|-------------------------
          Item                value                   Tolerance       Converged
          ---------------------------------------------------------------------
          RMS gradient        0.0089984977            0.0001000000      NO
          MAX gradient        0.0302558510            0.0003000000      NO
          RMS step            0.0193649167            0.0020000000      NO
          MAX step            0.0660763809            0.0040000000      NO
          -------------------------------------------------------------------------
          ........................................................
          Max(Bonds)      0.0350      Max(Angles)    0.50
          Max(Dihed)        0.43      Max(Improp)    0.00
          ---------------------------------------------------------------------

The optimization has not yet converged - more geometry cycles are needed


    ---------------------------------------------------------------------------
                         Redundant Internal Coordinates
                            (Angstroem and degrees)

        Definition                    Value    dE/dq     Step     New-Value
    ----------------------------------------------------------------------------
     1. B(B   1,B   0)                1.6000 -0.027259  0.0302    1.6302   
     2. B(B   2,B   1)                1.6000 -0.027295  0.0302    1.6302   
     3. B(B   2,B   0)                1.6000 -0.030234  0.0350    1.6350   
     4. B(B   3,B   2)                1.6000 -0.030256  0.0349    1.6349   
     5. B(B   4,B   2)                1.6000 -0.027241  0.0302    1.6302   
[...]
      dz2     :     0.007807  d :     0.051137
      dxz     :     0.007716
      dyz     :     0.007998
      dx2y2   :     0.014413
      dxy     :     0.013203

  9 B s       :     2.624539  s :     2.624539
      pz      :     0.704939  p :     2.174303
      px      :     0.796695
      py      :     0.672669
      dz2     :     0.014387  d :     0.069074
      dxz     :     0.012983
      dyz     :     0.013618
      dx2y2   :     0.013701
      dxy     :     0.014384

 10 B s       :     2.444904  s :     2.444904
      pz      :     0.631370  p :     2.547206
      px      :     0.932370
      py      :     0.983466
      dz2     :     0.019978  d :     0.096539
      dxz     :     0.014116
      dyz     :     0.021085
      dx2y2   :     0.016936
      dxy     :     0.024423

 11 B s       :     2.841515  s :     2.841515
      pz      :     0.709013  p :     2.066030
      px      :     0.764504
      py      :     0.592513
      dz2     :     0.007715  d :     0.051218
      dxz     :     0.007608
      dyz     :     0.008097
      dx2y2   :     0.014509
      dxy     :     0.013289



                     *******************************
                     * LOEWDIN POPULATION ANALYSIS *
                     *******************************

----------------------
LOEWDIN ATOMIC CHARGES
----------------------
   0 B :    0.053859
   1 B :   -0.018813
   2 B :   -0.004776
   3 B :   -0.025220
   4 B :   -0.048049
   5 B :   -0.004926
   6 B :    0.054953
   7 B :    0.073389
   8 B :   -0.077329
   9 B :   -0.025588
  10 B :    0.100411
  11 B :   -0.077911

-------------------------------
LOEWDIN REDUCED ORBITAL CHARGES
-------------------------------
  0 B s       :     2.686652  s :     2.686652
      pz      :     0.796052  p :     2.111052
      px      :     0.784731
      py      :     0.530270
      dz2     :     0.035543  d :     0.148436
      dxz     :     0.039084
      dyz     :     0.020632
      dx2y2   :     0.026523
      dxy     :     0.026654

  1 B s       :     2.663947  s :     2.663947
      pz      :     0.755425  p :     2.214007
      px      :     0.634568
      py      :     0.824014
      dz2     :     0.034952  d :     0.140860
      dxz     :     0.022390
      dyz     :     0.041375
      dx2y2   :     0.017195
      dxy     :     0.024948

  2 B s       :     2.589848  s :     2.589848
      pz      :     0.787109  p :     2.225905
      px      :     0.645032
      py      :     0.793764
      dz2     :     0.038867  d :     0.189022
      dxz     :     0.041693
      dyz     :     0.040952
      dx2y2   :     0.037440
      dxy     :     0.030071

  3 B s       :     2.595643  s :     2.595643
      pz      :     0.756030  p :     2.251493
      px      :     0.781994
      py      :     0.713469
      dz2     :     0.041579  d :     0.178084
      dxz     :     0.037102
      dyz     :     0.026233
      dx2y2   :     0.033110
      dxy     :     0.040060

  4 B s       :     2.584646  s :     2.584646
      pz      :     0.756253  p :     2.288355
      px      :     0.704288
      py      :     0.827813
      dz2     :     0.029052  d :     0.175049
      dxz     :     0.036126
      dyz     :     0.045409
      dx2y2   :     0.030609
      dxy     :     0.033853

  5 B s       :     2.590238  s :     2.590238
      pz      :     0.785182  p :     2.225951
      px      :     0.644165
      py      :     0.796605
      dz2     :     0.038737  d :     0.188737
      dxz     :     0.041796
      dyz     :     0.040836
      dx2y2   :     0.037172
      dxy     :     0.030196

  6 B s       :     2.686352  s :     2.686352
      pz      :     0.797539  p :     2.109766
      px      :     0.782257
      py      :     0.529969
      dz2     :     0.035531  d :     0.148930
      dxz     :     0.039109
      dyz     :     0.020979
      dx2y2   :     0.026724
      dxy     :     0.026586

  7 B s       :     2.775768  s :     2.775768
      pz      :     0.507301  p :     2.033755
      px      :     0.561292
      py      :     0.965162
      dz2     :     0.016304  d :     0.117088
      dxz     :     0.024133
      dyz     :     0.023930
      dx2y2   :     0.021928
      dxy     :     0.030793

  8 B s       :     2.682015  s :     2.682015
      pz      :     0.775162  p :     2.263816
      px      :     0.806359
      py      :     0.682294
      dz2     :     0.020048  d :     0.131499
      dxz     :     0.024003
      dyz     :     0.021699
      dx2y2   :     0.037897
      dxy     :     0.027851

  9 B s       :     2.595920  s :     2.595920
      pz      :     0.754303  p :     2.251483
      px      :     0.782062
      py      :     0.715118
      dz2     :     0.041756  d :     0.178185
      dxz     :     0.037181
      dyz     :     0.025917
      dx2y2   :     0.033132
      dxy     :     0.040199

 10 B s       :     2.559514  s :     2.559514
      pz      :     0.580538  p :     2.090200
      px      :     0.723885
      py      :     0.785777
      dz2     :     0.045124  d :     0.249875
      dxz     :     0.036280
      dyz     :     0.054555
      dx2y2   :     0.046040
      dxy     :     0.067875

 11 B s       :     2.681930  s :     2.681930
      pz      :     0.777055  p :     2.264394
      px      :     0.808582
      py      :     0.678758
      dz2     :     0.019827  d :     0.131587
      dxz     :     0.023784
      dyz     :     0.021823
      dx2y2   :     0.038160
      dxy     :     0.027993



                      *****************************
                      * MAYER POPULATION ANALYSIS *
                      *****************************

  NA   - Mulliken gross atomic population
  ZA   - Total nuclear charge
  QA   - Mulliken gross atomic charge
  VA   - Mayer's total valence
  BVA  - Mayer's bonded valence
  FA   - Mayer's free valence

  ATOM       NA         ZA         QA         VA         BVA        FA
  0 B      5.2198     5.0000    -0.2198     4.2713     4.2713    -0.0000
  1 B      4.9840     5.0000     0.0160     4.1162     4.1162    -0.0000
  2 B      4.8366     5.0000     0.1634     3.9586     3.9586     0.0000
  3 B      4.8680     5.0000     0.1320     4.0429     4.0429     0.0000
  4 B      4.9964     5.0000     0.0036     4.2663     4.2663     0.0000
  5 B      4.8379     5.0000     0.1621     3.9625     3.9625     0.0000
  6 B      5.2215     5.0000    -0.2215     4.2689     4.2689    -0.0000
  7 B      5.1605     5.0000    -0.1605     3.6199     3.6199     0.0000
  8 B      4.9599     5.0000     0.0401     4.0436     4.0436    -0.0000
  9 B      4.8679     5.0000     0.1321     4.0399     4.0399     0.0000
 10 B      5.0886     5.0000    -0.0886     3.8911     3.8911     0.0000
 11 B      4.9588     5.0000     0.0412     4.0414     4.0414     0.0000

  Mayer bond orders larger than 0.100000
B(  0-B ,  1-B ) :   1.0882 B(  0-B ,  2-B ) :   0.5844 B(  0-B ,  3-B ) :   0.5386 
B(  0-B ,  4-B ) :   0.1425 B(  0-B ,  5-B ) :   0.1638 B(  0-B ,  6-B ) :   0.3036 
B(  0-B ,  7-B ) :   0.2324 B(  0-B ,  8-B ) :   0.9496 B(  0-B , 10-B ) :   0.1510 
B(  1-B ,  2-B ) :   0.5302 B(  1-B ,  3-B ) :   0.1493 B(  1-B ,  4-B ) :   0.3082 
B(  1-B ,  5-B ) :   0.5321 B(  1-B ,  6-B ) :   1.0873 B(  1-B ,  8-B ) :   0.1050 
B(  1-B ,  9-B ) :   0.1490 B(  1-B , 11-B ) :   0.1053 B(  2-B ,  3-B ) :   0.6715 
B(  2-B ,  4-B ) :   0.5535 B(  2-B ,  5-B ) :   0.8141 B(  2-B ,  6-B ) :   0.1631 
B(  2-B ,  8-B ) :   0.1164 B(  2-B ,  9-B ) :   0.2043 B(  2-B , 10-B ) :   0.1746 
B(  3-B ,  4-B ) :   0.7667 B(  3-B ,  5-B ) :   0.2057 B(  3-B ,  8-B ) :   0.5860 
B(  3-B ,  9-B ) :   0.2212 B(  3-B , 10-B ) :   0.5712 B(  3-B , 11-B ) :   0.1859 
B(  4-B ,  5-B ) :   0.5530 B(  4-B ,  6-B ) :   0.1411 B(  4-B ,  8-B ) :   0.1746 
B(  4-B ,  9-B ) :   0.7652 B(  4-B , 10-B ) :   0.6046 B(  4-B , 11-B ) :   0.1738 
B(  5-B ,  6-B ) :   0.5865 B(  5-B ,  9-B ) :   0.6728 B(  5-B , 10-B ) :   0.1722 
B(  5-B , 11-B ) :   0.1166 B(  6-B ,  7-B ) :   0.2349 B(  6-B ,  9-B ) :   0.5379 
B(  6-B , 10-B ) :   0.1522 B(  6-B , 11-B ) :   0.9453 B(  7-B ,  8-B ) :   1.1828 
B(  7-B , 10-B ) :   0.4525 B(  7-B , 11-B ) :   1.1813 B(  8-B ,  9-B ) :   0.1847 
B(  8-B , 10-B ) :   0.4919 B(  8-B , 11-B ) :   0.1335 B(  9-B , 10-B ) :   0.5685 
B(  9-B , 11-B ) :   0.5888 B( 10-B , 11-B ) :   0.4924 

-------
TIMINGS
-------

Total SCF time: 0 days 0 hours 0 min 3 sec 

Total time                  ....       3.224 sec
Sum of individual times     ....       2.873 sec  ( 89.1%)

SCF preparation             ....       0.627 sec  ( 19.5%)
Fock matrix formation       ....       1.848 sec  ( 57.3%)
  Startup                   ....       0.006 sec  (  0.3% of F)
  Split-RI-J                ....       0.678 sec  ( 36.7% of F)
  XC integration            ....       1.375 sec  ( 74.4% of F)
    XC Preparation          ....       0.000 sec  (  0.0% of XC)
    Basis function eval.    ....       0.286 sec  ( 20.8% of XC)
    Density eval.           ....       0.225 sec  ( 16.4% of XC)
    XC-Functional eval.     ....       0.037 sec  (  2.7% of XC)
    XC-Potential eval.      ....       0.297 sec  ( 21.6% of XC)
Diagonalization             ....       0.000 sec  (  0.0%)
Density matrix formation    ....       0.025 sec  (  0.8%)
Total Energy calculation    ....       0.016 sec  (  0.5%)
Population analysis         ....       0.212 sec  (  6.6%)
Orbital Transformation      ....       0.014 sec  (  0.4%)
Orbital Orthonormalization  ....       0.000 sec  (  0.0%)
DIIS solution               ....       0.021 sec  (  0.6%)
SOSCF solution              ....       0.110 sec  (  3.4%)
Finished LeanSCF after   3.5 sec

Maximum memory used throughout the entire LEANSCF-calculation: 12.9 MB


-------------------------------------------------------------------------------
                          DFT DISPERSION CORRECTION                            
                                                                               
                              DFTD3 V3.1  Rev 1                                
                          USING Becke-Johnson damping                          
-------------------------------------------------------------------------------
The BP86 functional is recognized
Active option DFTDOPT                   ...         4   

molecular C6(AA) [au] = 4094.990094 


            DFT-D V3
 parameters
 s6 scaling factor         :     1.0000 
 a1 scaling factor         :     0.3946 
 s8 scaling factor         :     3.2822 
 a2 scaling factor         :     4.8516 
 ad hoc parameters k1-k3   :    16.0000     1.3333    -4.0000 

 Edisp/kcal,au: -23.634664080180  -0.037664230639 
 E6   /kcal   :  -6.718626423 
 E8   /kcal   : -16.916037657 
 % E8         :  71.572998034 

-------------------------   ----------------
Dispersion correction           -0.037664231
-------------------------   ----------------


-------------------------   --------------------
FINAL SINGLE POINT ENERGY      -297.665984287036
-------------------------   --------------------

                                *** OPTIMIZATION RUN DONE ***



           ************************************************************
           *        Program running with 8 parallel MPI-processes     *
           *              working on a common directory               *
           ************************************************************

------------------------------------------------------------------------------
                              ORCA PROPERTY CALCULATIONS
------------------------------------------------------------------------------

GBWName                                 ... cuboctahedron_nn1.60.gbw
Number of atoms                         ...     12
Number of basis functions               ...    168
Max core memory                         ...   2500 MB

Electric properties:
Dipole moment                           ... YES
Quadrupole moment                       ...  NO
Static polarizability (Dipole/Dipole)   ...  NO
Static polarizability (Dipole/Quad.)    ...  NO
Static polarizability (Quad./Quad.)     ...  NO
Static polarizability (Velocity)        ...  NO
Static hyperpolarizability              ...  NO

Atomic electric properties:
Dipole moment                           ...  NO
Quadrupole moment                       ...  NO
Static polarizability                   ...  NO

Choice of electric origin               ... Center of mass
Position of electric origin             ...     0.000000     0.000000     0.000000

General magnetic properties:
Magnetizability                         ...  NO

EPR properties:
g-Tensor (aka g-matrix)                 ...  NO
Zero-Field splitting spin-orbit         ...  NO
Zero-field splitting spin-spin          ...  NO
Hyperfine couplings                     ...  NO (   0 nuclei)
Quadrupole couplings                    ...  NO (   0 nuclei)
Contact density                         ...  NO (   0 nuclei)

NMR properties:
Chemical shifts                         ...  NO (   0 nuclei)
Spin-rotation constants                 ...  NO (   0 nuclei)
Spin-spin couplings                     ...  NO (   0 nuclei,    0 pairs)

Choice of magnetic origin               ... GIAO
Position of magnetic origin             ...     0.000000     0.000000     0.000000

Properties with geometric perturbations:
SCF Hessian                             ...  NO
IR spectrum                             ...  NO
VCD spectrum                            ...  NO
X-ray spectroscopy properties:
SCF XES/XAS/RIXS spectra                ...  NO

SCF SOC stabilization energy            ...  NO
Diagonal Born-Oppenheimer correction    ...  NO

-------------
DIPOLE MOMENT
-------------

Method             : SCF
Type of density    : Electron Density
Multiplicity       :   1
Irrep              :   0
Energy             :  -297.6283200563973423 Eh
Basis              : AO
                                X                 Y                 Z
Electronic contribution:     -0.355286248      -0.005153118       0.420934330
Nuclear contribution   :      0.000000000       0.000000000       0.000000000
                        -----------------------------------------
Total Dipole Moment    :     -0.355286248      -0.005153118       0.420934330
                        -----------------------------------------
Magnitude (a.u.)       :      0.550854412
Magnitude (Debye)      :      1.400160642



--------------------
Rotational spectrum 
--------------------
 
Rotational constants in cm-1:             0.073991             0.069652             0.058232 
Rotational constants in MHz :          2218.180237          2088.100362          1745.739974 

Dipole components along the rotational axes: 
x,y,z [a.u.] :     0.361602     0.002387     0.415547 
x,y,z [Debye]:     0.919118     0.006067     1.056236 

 

Dipole moment calculation done in   0.1 sec 

Maximum memory used throughout the entire PROP-calculation: 10.4 MB

--------------------------------
SUGGESTED CITATIONS FOR THIS RUN
--------------------------------

Below you find a list of papers that are relevant to this ORCA run
We neither can nor want to force you to cite these papers, but we appreciate if you do
You receive ORCA, which is the product of decades of hard work by many enthusiastic individuals, for free
The only thing we kindly ask in return is that you cite our papers,
We deeply appreciate it, if you show your appreciation for ORCA by not just citing the generic ORCA reference.

Please note that relegating all ORCA citations to the supporting information does *not* help us.
SI sections are not indexed - citations you put there will not count into any citation statistics
But we need these citations in order to attract the funding resources that allow us to do what we are doing

Therefore, if you are a happy ORCA user, please consider citing a few of the papers listed below in the main body of your paper

In addition to the list printed below, the program has created the file cuboctahedron_nn1.60.bibtex that contains the list in bibtex format
You can import this file easily into all common literature databanks and citation aid programs

It goes without saying that in many instances, there are alternative algorithms to achieve similar
results as the ones you have gotten from ORCA. It is, of course, also the case that in some instances
ORCA just re-implements algorithms worked out by others. We are fully aware of that and we are also
fully appreciative of our colleagues work. Hence this citation list should not be read as indicating
that the listed papers, which are focused on our own work, are the only ones worth citing. It simply
meant to make it easier for users to cite ORCA specific papers. It is not a substitute for doing your
own literature research and citing the relevant literature in a scientifically appropriate manner.

List of essential papers. We consider these as the minimum necessary citations

  1. Neese, F.
     Software update: the ORCA program system, version 6.0
     WIRES Comput. Molec. Sci. 2025 15(1), e70019
     doi.org/10.1002/wcms.70019

List of papers to cite with high priority. The work reported in these papers was absolutely
necessary for this run to complete.
Our perspective: the developers of density functionals and basis sets usually get cited in chemistry papers
Good! But without the algorithms to do something with them, the functionals or basis sets would not do anything.
Hence, in our opinion, the algorithm design and method developments papers are equally worthy of getting cited

  1. Neese, F.
     An improvement of the resolution of the identity approximation for the formation of the Coulomb matrix
     J. Comp. Chem. 2003 24(14), 1740-1747
     doi.org/10.1002/jcc.10318
  2. Grimme, S.; Antony, J.; Ehrlich, S.; Krieg, H.
     A consistent and accurate ab initio parametrization of density functional dispersion correction (DFT-D) for the 94 elements H-Pu
     J. Chem. Phys. 2010 132 , 154104
     doi.org/10.1063/1.3382344
  3. Grimme, S.; Ehrlich, S.; Goerigk, L.
     Effect of the damping function in dispersion corrected density functional theory
     J. Comput. Chem. 2011 32(7), 1456-1465
     doi.org/10.1002/jcc.21759
  4. Neese, F.
     The SHARK Integral Generation and Digestion System
     J. Comp. Chem. 2022 44(3), 381
     doi.org/10.1002/jcc.26942

List of suggested additional citations. These are papers that are important in the 'surrounding' of 
of this run, or papers that preceded the highly important papers. If you like your results we are grateful for a citation.

  1. Neese, F.
     The ORCA program system
     WIRES Comput. Molec. Sci. 2012 2(1), 73-78
     doi.org/10.1002/wcms.81
  2. Neese, F.
     Software update: the ORCA program system, version 4.0
     WIRES Comput. Molec. Sci. 2018 8(1), 1-6
     doi.org/10.1002/wcms.1327
  3. Neese, F.; Wennmohs, F.; Becker, U.; Riplinger, C.
     The ORCA quantum chemistry program package
     J. Chem. Phys. 2020 152(22), 224108
     doi.org/10.1063/5.0004608
  4. Neese, F.
     Software update: The ORCA program system—Version 5.0
     WIRES Comput. Molec. Sci. 2022 12(1), e1606
     doi.org/10.1002/wcms.1606

List of optional additional citations

  1. Neese, F.
     Approximate second-order SCF convergence for spin unrestricted wavefunctions
     Chem. Phys. Lett. 2000 325(1-3), 93-98
     doi.org/10.1016/s0009-2614(00)00662-x

Timings for individual modules:

Sum of individual times          ...      815.094 sec (=  13.585 min)
Startup calculation              ...      103.754 sec (=   1.729 min)  12.7 %
SCF iterations                   ...      555.458 sec (=   9.258 min)  68.1 %
Property calculations            ...        0.757 sec (=   0.013 min)   0.1 %
SCF Gradient evaluation          ...      153.964 sec (=   2.566 min)  18.9 %
Geometry relaxation              ...        1.162 sec (=   0.019 min)   0.1 %
                             ****ORCA TERMINATED NORMALLY****
TOTAL RUN TIME: 0 days 0 hours 14 minutes 25 seconds 332 msec
