
                                 *****************
                                 * O   R   C   A *
                                 *****************

                                            #,                                       
                                            ###                                      
                                            ####                                     
                                            #####                                    
                                            ######                                   
                                           ########,                                 
                                     ,,################,,,,,                         
                               ,,#################################,,                 
                          ,,##########################################,,             
                       ,#########################################, ''#####,          
                    ,#############################################,,   '####,        
                  ,##################################################,,,,####,       
                ,###########''''           ''''###############################       
              ,#####''   ,,,,##########,,,,          '''####'''          '####       
            ,##' ,,,,###########################,,,                        '##       
           ' ,,###''''                  '''############,,,                           
         ,,##''                                '''############,,,,        ,,,,,,###''
      ,#''                                            '''#######################'''  
     '                                                          ''''####''''         
             ,#######,   #######,   ,#######,      ##                                
            ,#'     '#,  ##    ##  ,#'     '#,    #''#        ,####,    ,#,          
            ##       ##  ##   ,#'  ##            #'  '#       #'       ,# #          
            ##       ##  #######   ##           ,######,      #####,      #          
            '#,     ,#'  ##    ##  '#,     ,#' ,#      #,     #,   #      #          
             '#######'   ##     ##  '#######'  #'      '#     '####' #    #          



                #########################################################
                #                        -***-                          #
                #          Department of theory and spectroscopy        #
                #                                                       #
                #                      Frank Neese                      #
                #                                                       #
                #     Directorship, Architecture, Infrastructure        #
                #                    SHARK, DRIVERS                     #
                #        Core code/Algorithms in most modules           #
                #                                                       #
                #        Max Planck Institute fuer Kohlenforschung      #
                #                Kaiser Wilhelm Platz 1                 #
                #                 D-45470 Muelheim/Ruhr                 #
                #                      Germany                          #
                #                                                       #
                #                  All rights reserved                  #
                #                        -***-                          #
                #########################################################


                         Program Version 6.1.1  -  RELEASE   -
                                (GIT: $487d211c$)
                          ($2025-11-21 10:33:24 +0100$)
                                                                         
                                  - NO-DMRG VERSION -                    
                                                                         


 With contributions from (in alphabetic order):
[Max-Planck-Institut fuer Kohlenforschung]                               
  Daniel Aravena         : Magnetic Suceptibility                        
  Michael Atanasov       : Ab Initio Ligand Field Theory (pilot matlab implementation)
  Alexander A. Auer      : GIAO ZORA, VPT2 properties, NMR spectrum      
  Ute Becker             : All parallelization in ORCA, NUMFREQ, NUMCALC 
  Giovanni Bistoni       : ED, misc. LED, open-shell LED, HFLD           
  Dmytro Bykov           : pre 5.0 version of the SCF Hessian            
  Marcos Casanova-Páez   : Triplet and SCS-CIS(D). UHF-(DLPNO)-IP/EA/STEOM-CCSD. UHF-CVS-IP/STEOM-CCSD   
  Vijay G. Chilkuri      : MRCI spin determinant printing, contributions to CSF-ICE 
  Pauline Colinet        : FMM embedding                                 
  Dipayan Datta          : RHF DLPNO-CCSD density                        
  Achintya Kumar Dutta   : EOM-CC, STEOM-CC                              
  Nicolas Foglia         : Exact transition moments, OPA infrastructure, MCD improvements    
  Dmitry Ganyushin       : Spin-Orbit,Spin-Spin,Magnetic field MRCI      
  Miquel Garcia-Rates    : C-PCM and meta-GGA Hessian, CCSD/C-PCM, Gaussian charge scheme 
  Tiago L. C. Gouveia    : GS-ROHF, GS-ROCIS                             
  Yang Guo               : DLPNO-NEVPT2, F12-NEVPT2, CIM, IAO-localization        
  Andreas Hansen         : Spin unrestricted coupled pair/coupled cluster methods 
  Ingolf Harden          : AUTO-CI MPn and infrastructure                
  Benjamin Helmich-Paris : MC-RPA, TRAH-(SCF,CASSCF), AVAS, COSX integrals, SCF dyn. polar., MC-PDFT, srDFT 
  Lee Huntington         : MR-EOM, pCC                                   
  Robert Izsak           : Overlap fitted RIJCOSX, COSX-SCS-MP3, EOM     
  Riya Kayal             : Wick's Theorem for AUTO-CI, AUTO-CI UHF-CCSDT 
  Emily Kempfer          : AUTO-CI RHF CISDT and CCSDT, approximate NEVPT4
  Christian Kollmar      : KDIIS, OOCD, Brueckner-CCSD(T), CCSD density, CASPT2, CASPT2-K, improved NEVPT2 
  Axel Koslowski         : Symmetry handling                             
  Simone Kossmann        : meta-GGA functionals, TD-DFT gradient, OOMP2, (MP2 Hessian; deprecated post 5.0) 
  Lucas Lang             : DCDCAS, Hyperfine gauge corrections, ICE-SOC+SSC
  Marvin Lechner         : AUTO-CI (C++ implementation), FIC-MRCC        
  Spencer Leger          : CASSCF response                               
  Dagmar Lenk            : GEPOL surface, SMD, ORCA-2-JSON               
  Dimitrios Liakos       : Extrapolation schemes; Compound Job, Property file
  Dimitrios Manganas     : Further ROCIS development; embedding schemes. LFT, Crystal Embedding 
  Dimitrios Pantazis     : SARC Basis sets                               
  Anastasios Papadopoulos: AUTO-CI, single reference methods and gradients 
  Taras Petrenko         : pre 6.0 DFT Hessian and TD-DFT gradient,  ECA, NRVS 
  Petra Pikulova         : Analytic Raman intensities                    
  Peter Pinski           : DLPNO-MP2, DLPNO-MP2 Gradient                 
  Shashank Vittal Rao    : ES-AILFT, MagRelax                            
  Christoph Reimann      : Effective Core Potentials                     
  Marius Retegan         : Local ZFS, SOC                                
  Christoph Riplinger    : Optimizer, TS searches, QM/MM, DLPNO-CCSD(T), (RO)-DLPNO pert. Triples 
  Michael Roemelt        : Original ROCIS implementation, recursive CI coupling coefficients
  Masaaki Saitow         : Open-shell DLPNO-CCSD energy and density      
  Barbara Sandhoefer     : DKH picture change effects                    
  Yorick L. A. Schmerwitz: GMF and freeze-and-release deltaSCF, NEB S-IDPP initial path                    
  Kantharuban Sivalingam : CASSCF convergence/infrastructure, NEVPT2, NEVPT3, NEVPT4(SD), FIC-MRCI and CEPA variants
  Bernardo de Souza      : ESD, SOC TD-DFT                               
  Georgi L. Stoychev     : AutoAux, RI-MP2 NMR, DLPNO-MP2 response, X2C  
  Van Anh Tran           : RI-MP2 g-tensors                              
  Willem Van den Heuvel  : Paramagnetic NMR                              
  Zikuan Wang            : NOTCH, Electric field optimization            
  Frank Wennmohs         : Technical directorship and infrastructure     
  Hang Xu                : AUTO-CI-Response properties                   
                                                                         
[FACCTs GmbH]                                                            
  Markus Bursch, Nicolas Foglia, Miquel Garcia-Rates, Ingolf Harden, Hagen Neugebauer, Anastasios Papadopoulos, 
  Christoph Riplinger, Bernardo de Souza, Georgi L. Stoychev                                                    
                                                                 
  APM, various basis sets, CI-OPT, improved COSX, DLPNO-Multilevel,           
  DOCKER, DRACO, updates on ESD, Fragmentator, GOAT, IRC, LR-CPCM, L-BFGS, MBIS, meta-GGA TD-DFT gradient, ML-optimized integration grids, 
  MM, NACMEs, nearIR, NEB, NEB-TS, NL-DFT gradient (VV10), 2- and 3-layer-ONIOM, interface openCOSMO-RS, QMMM,   
  Crystal-QMMM, RESP, rigid body optimization, SF, symmetry and pop. for TD-DFT, various functionals, SOLVATOR                                   
                                                                         
[Other institutions]                                                     
  V. Asgeirsson          : NEB                                           
  Christoph Bannwarth    : sTDA-DFT, sTD-DFT, PBEh-3c, B97-3c, D3        
  Giovanni Bistoni       : ETS/NOCV, ADLD/ADEX, COVALED                  
  Martin Brehm           : Molecular dynamics                            
  Ronald Cardenas        : ETS/NOCV                                      
  Martina Colucci        : COVALED                                       
  Sebastian Ehlert       : rSCAN, r2SCAN, r2SCAN-3c, D4, dhf basis sets  
  Marvin Friede          : D4 for Fr, Ra, Ac-Lr                          
  Lars Goerigk           : TD-DFT with DH, B97 family of functionals     
  Stefan Grimme          : VdW corrections, initial TS optimization, DFT functionals, gCP, sTDA/sTD-DF 
  Waldemar Hujo          : DFT-NL                                        
  H. Jonsson             : NEB                                           
  Holger Kruse           : gCP                                           
  Marcel Mueller         : wB97X-3c, vDZP basis set                      
  Hagen Neugebauer       : wr2SCAN, Native XTB                           
  Gianluca Regni         : ADLD/ADEX                                     
  Tobias Risthaus        : pre 6.0 range-separated hybrid DFT and stability analysis
  Lukas Wittmann         : regularized MP2, r2SCAN double-hybrids, wr2SCAN        
                                                                         
We gratefully acknowledge several colleagues who have allowed us to      
interface, adapt or use parts of their codes:                            
  Ed Valeev, F. Pavosevic, A. Kumar             : LibInt (2-el integral package), F12 methods 
  Garnet Chan, S. Sharma, J. Yang, R. Olivares  : DMRG                   
  Ulf Ekstrom                                   : XCFun DFT Library      
  Mihaly Kallay                                 : mrcc  (arbitrary order and MRCC methods)
  Frank Weinhold                                : gennbo (NPA and NBO analysis)           
  Simon Mueller                                 : openCOSMO-RS                            
  Christopher J. Cramer and Donald G. Truhlar   : smd solvation model                     
  S Lehtola, MJT Oliveira, MAL Marques          : LibXC Library                           
  Liviu Ungur et al                             : ANISO software                          


 Your calculation uses the libint2 library for the computation of 2-el integrals
 For citations please refer to: http://libint.valeyev.net

 Your ORCA version has been built with support for libXC version: 7.0.0
 For citations please refer to: https://libxc.gitlab.io

 This ORCA versions uses:
   CBLAS   interface :  Fast vector & matrix operations
   LAPACKE interface :  Fast linear algebra routines
   SCALAPACK package :  Parallel linear algebra routines
   Shared memory     :  Shared parallel matrices
   BLAS/LAPACK       :  OpenBLAS 0.3.29  USE64BITINT DYNAMIC_ARCH NO_AFFINITY Zen SINGLE_THREADED
        Core in use  :  Zen
   Copyright (c) 2011-2014, The OpenBLAS Project


  ***********************************
  * Starting time: Thu Apr 23 18:12:30 2026
  * Host name:     vmi3233575
  * Process ID:    1390761
  * Working dir.:  /root/b12_scan/jobs/icosahedron_nn2.50
  ***********************************

NOTE: MaxCore=2500 MB was set to SCF,MP2,MDCI,CIPSI,MRCI,RASCI and CIS
      => If you want to overwrite this, your respective input block should be placed after the MaxCore statement
Your calculation utilizes the atom-pairwise dispersion correction
with the Becke-Johnson damping scheme (D3BJ)


================================================================================

----- Orbital basis set information -----
Your calculation utilizes the basis: def2-SVP
   F. Weigend and R. Ahlrichs, Phys. Chem. Chem. Phys. 7, 3297 (2005).

----- AuxJ basis set information -----
Your calculation utilizes the auxiliary basis: def2/J
   H-Rn: F. Weigend, Phys. Chem. Chem. Phys. 8, 1057 (2006).
   Fr-Lr: K. Eichkorn, F. Weigend, O. Treutler, R. Ahlrichs; Theor. Chem. Acc. 97, 119 (1997).

================================================================================
                                        WARNINGS
                       Please study these warnings very carefully!
================================================================================


WARNING: Geometry Optimization
  ===> : Switching off AutoStart
         For restart on a previous wavefunction, please use MOREAD

================================================================================
                                       INPUT FILE
================================================================================
NAME = icosahedron_nn2.50.inp
|  1> ! BP86 def2-SVP def2/J RI Opt TightSCF D3BJ
|  2> ! SlowConv
|  3> 
|  4> %pal nprocs 8 end
|  5> %maxcore 2500
|  6> 
|  7> %geom
|  8>   MaxIter 300
|  9> end
| 10> 
| 11> * xyz 0 1
| 12> B      0.00000000     -1.25000000     -2.02254249
| 13> B     -1.25000000     -2.02254249      0.00000000
| 14> B     -2.02254249      0.00000000     -1.25000000
| 15> B      0.00000000     -1.25000000      2.02254249
| 16> B     -1.25000000      2.02254249      0.00000000
| 17> B      2.02254249      0.00000000     -1.25000000
| 18> B      0.00000000      1.25000000     -2.02254249
| 19> B      1.25000000     -2.02254249      0.00000000
| 20> B     -2.02254249      0.00000000      1.25000000
| 21> B      0.00000000      1.25000000      2.02254249
| 22> B      1.25000000      2.02254249      0.00000000
| 23> B      2.02254249      0.00000000      1.25000000
| 24> *
| 25> 
| 26>                          ****END OF INPUT****
================================================================================

                       *****************************
                       * Geometry Optimization Run *
                       *****************************

Geometry optimization settings:
Update method            Update   .... BFGS
Choice of coordinates    CoordSys .... (2022) Redundant Internals
Initial Hessian          InHess   .... Almloef's Model
Max. no of cycles        MaxIter  .... 300

Convergence Tolerances:
Energy Change            TolE     ....  5.0000e-06 Eh
Max. Gradient            TolMAXG  ....  3.0000e-04 Eh/bohr
RMS Gradient             TolRMSG  ....  1.0000e-04 Eh/bohr
Max. Displacement        TolMAXD  ....  4.0000e-03 bohr
RMS Displacement         TolRMSD  ....  2.0000e-03 bohr
Strict Convergence                .... False

------------------------------------------------------------------------------
                        ORCA OPTIMIZATION COORDINATE SETUP
------------------------------------------------------------------------------

The optimization will be done in redundant internal coordinates (2022)
Making redundant internal coordinates   ...  (2022 redundants) done
Evaluating the initial hessian          ...  (Almloef) done
Evaluating the coordinates              ...  done
Calculating the B-matrix                .... done
Calculating the G-matrix                .... done
The number of degrees of freedom        ....  390

    -----------------------------------------------------------------
                    Redundant Internal Coordinates


    -----------------------------------------------------------------
         Definition                    Initial Value    Approx d2E/dq
    -----------------------------------------------------------------
      1. B(B   1,B   0)                  2.5000         0.014205   
      2. B(B   2,B   0)                  2.5000         0.014205   
      3. B(B   2,B   1)                  2.5000         0.014205   
      4. B(B   3,B   1)                  2.5000         0.014205   
      5. B(B   4,B   2)                  2.5000         0.014205   
      6. B(B   5,B   0)                  2.5000         0.014205   
      7. B(B   6,B   4)                  2.5000         0.014205   
      8. B(B   6,B   2)                  2.5000         0.014205   
      9. B(B   6,B   5)                  2.5000         0.014205   
     10. B(B   6,B   0)                  2.5000         0.014205   
     11. B(B   7,B   1)                  2.5000         0.014205   
     12. B(B   7,B   5)                  2.5000         0.014205   
     13. B(B   7,B   3)                  2.5000         0.014205   
     14. B(B   7,B   0)                  2.5000         0.014205   
     15. B(B   8,B   3)                  2.5000         0.014205   
     16. B(B   8,B   1)                  2.5000         0.014205   
     17. B(B   8,B   2)                  2.5000         0.014205   
     18. B(B   8,B   4)                  2.5000         0.014205   
     19. B(B   9,B   8)                  2.5000         0.014205   
     20. B(B   9,B   3)                  2.5000         0.014205   
     21. B(B   9,B   4)                  2.5000         0.014205   
     22. B(B  10,B   5)                  2.5000         0.014205   
     23. B(B  10,B   6)                  2.5000         0.014205   
     24. B(B  10,B   9)                  2.5000         0.014205   
     25. B(B  10,B   4)                  2.5000         0.014205   
     26. B(B  11,B   3)                  2.5000         0.014205   
     27. B(B  11,B   9)                  2.5000         0.014205   
     28. B(B  11,B  10)                  2.5000         0.014205   
     29. B(B  11,B   7)                  2.5000         0.014205   
     30. B(B  11,B   5)                  2.5000         0.014205   
     31. A(B   2,B   0,B   6)           60.0000         0.154165   
     32. A(B   5,B   0,B   6)           60.0000         0.154165   
     33. A(B   1,B   0,B   7)           60.0000         0.154165   
     34. A(B   6,B   0,B   7)          108.0000         0.154165   
     35. A(B   1,B   0,B   5)          108.0000         0.154165   
     36. A(B   1,B   0,B   6)          108.0000         0.154165   
     37. A(B   1,B   0,B   2)           60.0000         0.154165   
     38. A(B   2,B   0,B   5)          108.0000         0.154165   
     39. A(B   5,B   0,B   7)           60.0000         0.154165   
     40. A(B   2,B   0,B   7)          108.0000         0.154165   
     41. A(B   0,B   1,B   2)           60.0000         0.154165   
     42. A(B   7,B   1,B   8)          108.0000         0.154165   
     43. A(B   2,B   1,B   3)          108.0000         0.154165   
     44. A(B   3,B   1,B   7)           60.0000         0.154165   
     45. A(B   2,B   1,B   8)           60.0000         0.154165   
     46. A(B   3,B   1,B   8)           60.0000         0.154165   
     47. A(B   2,B   1,B   7)          108.0000         0.154165   
     48. A(B   0,B   1,B   8)          108.0000         0.154165   
     49. A(B   0,B   1,B   7)           60.0000         0.154165   
     50. A(B   0,B   1,B   3)          108.0000         0.154165   
     51. A(B   0,B   2,B   4)          108.0000         0.154165   
     52. A(B   1,B   2,B   4)          108.0000         0.154165   
     53. A(B   1,B   2,B   6)          108.0000         0.154165   
     54. A(B   0,B   2,B   6)           60.0000         0.154165   
     55. A(B   0,B   2,B   1)           60.0000         0.154165   
     56. A(B   4,B   2,B   6)           60.0000         0.154165   
     57. A(B   4,B   2,B   8)           60.0000         0.154165   
     58. A(B   1,B   2,B   8)           60.0000         0.154165   
     59. A(B   0,B   2,B   8)          108.0000         0.154165   
     60. A(B   6,B   2,B   8)          108.0000         0.154165   
     61. A(B   7,B   3,B  11)           60.0000         0.154165   
     62. A(B   9,B   3,B  11)           60.0000         0.154165   
     63. A(B   1,B   3,B  11)          108.0000         0.154165   
     64. A(B   8,B   3,B  11)          108.0000         0.154165   
     65. A(B   1,B   3,B   7)           60.0000         0.154165   
     66. A(B   8,B   3,B   9)           60.0000         0.154165   
     67. A(B   1,B   3,B   9)          108.0000         0.154165   
     68. A(B   7,B   3,B   8)          108.0000         0.154165   
     69. A(B   7,B   3,B   9)          108.0000         0.154165   
     70. A(B   1,B   3,B   8)           60.0000         0.154165   
     71. A(B   6,B   4,B   8)          108.0000         0.154165   
     72. A(B   6,B   4,B  10)           60.0000         0.154165   
     73. A(B   2,B   4,B   8)           60.0000         0.154165   
     74. A(B   2,B   4,B   6)           60.0000         0.154165   
     75. A(B   8,B   4,B  10)          108.0000         0.154165   
     76. A(B   8,B   4,B   9)           60.0000         0.154165   
     77. A(B   6,B   4,B   9)          108.0000         0.154165   
     78. A(B   2,B   4,B   9)          108.0000         0.154165   
     79. A(B   2,B   4,B  10)          108.0000         0.154165   
     80. A(B   9,B   4,B  10)           60.0000         0.154165   
     81. A(B   0,B   5,B  11)          108.0000         0.154165   
     82. A(B   6,B   5,B  11)          108.0000         0.154165   
     83. A(B   6,B   5,B   7)          108.0000         0.154165   
     84. A(B   6,B   5,B  10)           60.0000         0.154165   
     85. A(B   7,B   5,B  11)           60.0000         0.154165   
     86. A(B   0,B   5,B   7)           60.0000         0.154165   
     87. A(B   0,B   5,B  10)          108.0000         0.154165   
     88. A(B   7,B   5,B  10)          108.0000         0.154165   
     89. A(B  10,B   5,B  11)           60.0000         0.154165   
     90. A(B   0,B   5,B   6)           60.0000         0.154165   
     91. A(B   2,B   6,B   4)           60.0000         0.154165   
     92. A(B   5,B   6,B  10)           60.0000         0.154165   
     93. A(B   4,B   6,B   5)          108.0000         0.154165   
     94. A(B   0,B   6,B   4)          108.0000         0.154165   
     95. A(B   2,B   6,B   5)          108.0000         0.154165   
     96. A(B   0,B   6,B   5)           60.0000         0.154165   
     97. A(B   4,B   6,B  10)           60.0000         0.154165   
     98. A(B   2,B   6,B  10)          108.0000         0.154165   
     99. A(B   0,B   6,B  10)          108.0000         0.154165   
    100. A(B   0,B   6,B   2)           60.0000         0.154165   
    101. A(B   5,B   7,B  11)           60.0000         0.154165   
    102. A(B   3,B   7,B  11)           60.0000         0.154165   
    103. A(B   0,B   7,B  11)          108.0000         0.154165   
    104. A(B   1,B   7,B  11)          108.0000         0.154165   
    105. A(B   0,B   7,B   3)          108.0000         0.154165   
    106. A(B   0,B   7,B   1)           60.0000         0.154165   
    107. A(B   1,B   7,B   3)           60.0000         0.154165   
    108. A(B   3,B   7,B   5)          108.0000         0.154165   
    109. A(B   0,B   7,B   5)           60.0000         0.154165   
    110. A(B   1,B   7,B   5)          108.0000         0.154165   
    111. A(B   1,B   8,B   3)           60.0000         0.154165   
    112. A(B   2,B   8,B   3)          108.0000         0.154165   
    113. A(B   4,B   8,B   9)           60.0000         0.154165   
    114. A(B   3,B   8,B   4)          108.0000         0.154165   
    115. A(B   1,B   8,B   4)          108.0000         0.154165   
    116. A(B   2,B   8,B   4)           60.0000         0.154165   
    117. A(B   1,B   8,B   2)           60.0000         0.154165   
    118. A(B   3,B   8,B   9)           60.0000         0.154165   
    119. A(B   1,B   8,B   9)          108.0000         0.154165   
    120. A(B   2,B   8,B   9)          108.0000         0.154165   
    121. A(B   8,B   9,B  10)          108.0000         0.154165   
    122. A(B   3,B   9,B  10)          108.0000         0.154165   
    123. A(B  10,B   9,B  11)           60.0000         0.154165   
    124. A(B   4,B   9,B  11)          108.0000         0.154165   
    125. A(B   8,B   9,B  11)          108.0000         0.154165   
    126. A(B   3,B   9,B  11)           60.0000         0.154165   
    127. A(B   4,B   9,B   8)           60.0000         0.154165   
    128. A(B   3,B   9,B   4)          108.0000         0.154165   
    129. A(B   3,B   9,B   8)           60.0000         0.154165   
    130. A(B   4,B   9,B  10)           60.0000         0.154165   
    131. A(B   5,B  10,B  11)           60.0000         0.154165   
    132. A(B   6,B  10,B  11)          108.0000         0.154165   
    133. A(B   9,B  10,B  11)           60.0000         0.154165   
    134. A(B   4,B  10,B  11)          108.0000         0.154165   
    135. A(B   5,B  10,B   6)           60.0000         0.154165   
    136. A(B   5,B  10,B   9)          108.0000         0.154165   
    137. A(B   4,B  10,B   5)          108.0000         0.154165   
    138. A(B   6,B  10,B   9)          108.0000         0.154165   
    139. A(B   4,B  10,B   6)           60.0000         0.154165   
    140. A(B   4,B  10,B   9)           60.0000         0.154165   
    141. A(B   3,B  11,B   9)           60.0000         0.154165   
    142. A(B   3,B  11,B  10)          108.0000         0.154165   
    143. A(B   3,B  11,B   7)           60.0000         0.154165   
    144. A(B   3,B  11,B   5)          108.0000         0.154165   
    145. A(B   9,B  11,B  10)           60.0000         0.154165   
    146. A(B   7,B  11,B   9)          108.0000         0.154165   
    147. A(B   5,B  11,B   9)          108.0000         0.154165   
    148. A(B   7,B  11,B  10)          108.0000         0.154165   
    149. A(B   5,B  11,B  10)           60.0000         0.154165   
    150. A(B   5,B  11,B   7)           60.0000         0.154165   
    151. D(B   8,B   1,B   0,B   7)    100.8123         0.010000   
    152. D(B   7,B   1,B   0,B   6)   -100.8123         0.010000   
    153. D(B   8,B   1,B   0,B   6)      0.0000         0.010000   
    154. D(B   2,B   1,B   0,B   7)    138.1897         0.010000   
    155. D(B   7,B   1,B   0,B   2)   -138.1897         0.010000   
    156. D(B   2,B   1,B   0,B   5)    100.8123         0.010000   
    157. D(B   2,B   1,B   0,B   6)     37.3774         0.010000   
    158. D(B   7,B   1,B   0,B   5)    -37.3774         0.010000   
    159. D(B   8,B   2,B   0,B   1)     37.3774         0.010000   
    160. D(B   6,B   2,B   1,B   7)      0.0000         0.010000   
    161. D(B   6,B   2,B   1,B   8)    100.8123         0.010000   
    162. D(B   1,B   2,B   0,B   7)    -37.3774         0.010000   
    163. D(B   0,B   2,B   1,B   7)     37.3774         0.010000   
    164. D(B   6,B   2,B   1,B   3)     63.4349         0.010000   
    165. D(B   6,B   2,B   0,B   5)     37.3774         0.010000   
    166. D(B   1,B   2,B   0,B   5)   -100.8123         0.010000   
    167. D(B   1,B   2,B   0,B   6)   -138.1897         0.010000   
    168. D(B   8,B   2,B   1,B   0)   -138.1897         0.010000   
    169. D(B   6,B   2,B   1,B   0)    -37.3774         0.010000   
    170. D(B   8,B   2,B   0,B   6)   -100.8123         0.010000   
    171. D(B   6,B   2,B   0,B   7)    100.8123         0.010000   
    172. D(B   0,B   2,B   1,B   3)    100.8123         0.010000   
    173. D(B   6,B   2,B   0,B   1)    138.1897         0.010000   
    174. D(B   0,B   2,B   1,B   8)    138.1897         0.010000   
    175. D(B   8,B   3,B   1,B   2)     37.3774         0.010000   
    176. D(B   7,B   3,B   1,B   2)   -100.8123         0.010000   
    177. D(B   9,B   3,B   1,B   0)     63.4349         0.010000   
    178. D(B   7,B   3,B   1,B   0)    -37.3774         0.010000   
    179. D(B   8,B   3,B   1,B   7)    138.1897         0.010000   
    180. D(B   7,B   3,B   1,B   8)   -138.1897         0.010000   
    181. D(B   8,B   3,B   1,B   0)    100.8123         0.010000   
    182. D(B   9,B   3,B   1,B   7)    100.8123         0.010000   
    183. D(B   8,B   4,B   2,B   0)   -100.8123         0.010000   
    184. D(B   9,B   4,B   2,B   1)     -0.0000         0.010000   
    185. D(B   6,B   4,B   2,B   1)    100.8123         0.010000   
    186. D(B   8,B   4,B   2,B   1)    -37.3774         0.010000   
    187. D(B   6,B   4,B   2,B   0)     37.3774         0.010000   
    188. D(B   9,B   4,B   2,B   6)   -100.8123         0.010000   
    189. D(B   6,B   4,B   2,B   8)    138.1897         0.010000   
    190. D(B   8,B   4,B   2,B   6)   -138.1897         0.010000   
    191. D(B  10,B   5,B   0,B   7)   -100.8123         0.010000   
    192. D(B   7,B   5,B   0,B   6)    138.1897         0.010000   
    193. D(B   7,B   5,B   0,B   1)     37.3774         0.010000   
    194. D(B   7,B   5,B   0,B   2)    100.8123         0.010000   
    195. D(B   6,B   5,B   0,B   1)   -100.8123         0.010000   
    196. D(B  10,B   5,B   0,B   2)     -0.0000         0.010000   
    197. D(B  10,B   5,B   0,B   1)    -63.4349         0.010000   
    198. D(B  10,B   5,B   0,B   6)     37.3774         0.010000   
    199. D(B   4,B   6,B   2,B   1)   -100.8123         0.010000   
    200. D(B   0,B   6,B   2,B   8)    100.8123         0.010000   
    201. D(B   4,B   6,B   0,B   7)    -63.4349         0.010000   
    202. D(B   2,B   6,B   0,B   5)   -138.1897         0.010000   
    203. D(B   4,B   6,B   2,B   0)   -138.1897         0.010000   
    204. D(B  10,B   6,B   0,B   1)     63.4349         0.010000   
    205. D(B   4,B   6,B   0,B   5)   -100.8123         0.010000   
    206. D(B   4,B   6,B   0,B   1)      0.0000         0.010000   
    207. D(B   0,B   6,B   2,B   1)     37.3774         0.010000   
    208. D(B   2,B   6,B   0,B   7)   -100.8123         0.010000   
    209. D(B   4,B   6,B   2,B   8)    -37.3774         0.010000   
    210. D(B   0,B   6,B   2,B   4)    138.1897         0.010000   
    211. D(B   4,B   6,B   0,B   2)     37.3774         0.010000   
    212. D(B   2,B   6,B   0,B   1)    -37.3774         0.010000   
    213. D(B   4,B   6,B   5,B  10)    -37.3774         0.010000   
    214. D(B  10,B   6,B   2,B   1)    -63.4349         0.010000   
    215. D(B   2,B   6,B   5,B   0)     37.3774         0.010000   
    216. D(B   2,B   6,B   5,B   7)      0.0000         0.010000   
    217. D(B   2,B   6,B   5,B  10)   -100.8123         0.010000   
    218. D(B   0,B   6,B   5,B   7)    -37.3774         0.010000   
    219. D(B   0,B   6,B   5,B  10)   -138.1897         0.010000   
    220. D(B  10,B   6,B   4,B   8)   -100.8123         0.010000   
    221. D(B   0,B   6,B   4,B   2)    -37.3774         0.010000   
    222. D(B   2,B   6,B   4,B   8)     37.3774         0.010000   
    223. D(B   0,B   6,B   4,B  10)    100.8123         0.010000   
    224. D(B   0,B   6,B   5,B  11)   -100.8123         0.010000   
    225. D(B   2,B   6,B   4,B  10)    138.1897         0.010000   
    226. D(B   0,B   6,B   4,B   9)     63.4349         0.010000   
    227. D(B   0,B   6,B   4,B   8)     -0.0000         0.010000   
    228. D(B   2,B   6,B   5,B  11)    -63.4349         0.010000   
    229. D(B  10,B   6,B   2,B   0)   -100.8123         0.010000   
    230. D(B   2,B   6,B   4,B   9)    100.8123         0.010000   
    231. D(B   3,B   7,B   5,B  10)     -0.0000         0.010000   
    232. D(B   0,B   7,B   5,B   6)     37.3774         0.010000   
    233. D(B   0,B   7,B   5,B  10)    100.8123         0.010000   
    234. D(B   1,B   7,B   5,B  11)    100.8123         0.010000   
    235. D(B   1,B   7,B   5,B   6)     -0.0000         0.010000   
    236. D(B   1,B   7,B   5,B  10)     63.4349         0.010000   
    237. D(B   5,B   7,B   3,B   1)    100.8123         0.010000   
    238. D(B   0,B   7,B   3,B   9)    -63.4349         0.010000   
    239. D(B   0,B   7,B   3,B   8)      0.0000         0.010000   
    240. D(B   0,B   7,B   3,B   1)     37.3774         0.010000   
    241. D(B   1,B   7,B   3,B   8)    -37.3774         0.010000   
    242. D(B   5,B   7,B   1,B   2)      0.0000         0.010000   
    243. D(B   0,B   7,B   1,B   3)   -138.1897         0.010000   
    244. D(B   3,B   7,B   1,B   2)    100.8123         0.010000   
    245. D(B   3,B   7,B   1,B   0)    138.1897         0.010000   
    246. D(B   5,B   7,B   1,B   0)     37.3774         0.010000   
    247. D(B   0,B   7,B   1,B   8)   -100.8123         0.010000   
    248. D(B   0,B   7,B   1,B   2)    -37.3774         0.010000   
    249. D(B   5,B   7,B   0,B   6)    -37.3774         0.010000   
    250. D(B   3,B   7,B   1,B   8)     37.3774         0.010000   
    251. D(B   3,B   7,B   0,B   5)    100.8123         0.010000   
    252. D(B   0,B   7,B   3,B  11)   -100.8123         0.010000   
    253. D(B   3,B   7,B   0,B   2)     -0.0000         0.010000   
    254. D(B   1,B   7,B   3,B  11)   -138.1897         0.010000   
    255. D(B   3,B   7,B   0,B   1)    -37.3774         0.010000   
    256. D(B   1,B   7,B   5,B   0)    -37.3774         0.010000   
    257. D(B   3,B   7,B   0,B   6)     63.4349         0.010000   
    258. D(B   1,B   7,B   0,B   6)    100.8123         0.010000   
    259. D(B   0,B   7,B   5,B  11)    138.1897         0.010000   
    260. D(B   1,B   7,B   0,B   2)     37.3774         0.010000   
    261. D(B   1,B   7,B   3,B   9)   -100.8123         0.010000   
    262. D(B   1,B   7,B   0,B   5)    138.1897         0.010000   
    263. D(B   3,B   8,B   2,B   0)      0.0000         0.010000   
    264. D(B   3,B   8,B   2,B   6)    -63.4349         0.010000   
    265. D(B   3,B   8,B   2,B   1)     37.3774         0.010000   
    266. D(B   1,B   8,B   2,B   0)    -37.3774         0.010000   
    267. D(B   1,B   8,B   2,B   6)   -100.8123         0.010000   
    268. D(B   9,B   8,B   1,B   7)     -0.0000         0.010000   
    269. D(B   3,B   8,B   1,B   0)   -100.8123         0.010000   
    270. D(B   2,B   8,B   1,B   0)     37.3774         0.010000   
    271. D(B   2,B   8,B   1,B   3)    138.1897         0.010000   
    272. D(B   1,B   8,B   2,B   4)   -138.1897         0.010000   
    273. D(B   2,B   8,B   1,B   7)    100.8123         0.010000   
    274. D(B   3,B   8,B   1,B   7)    -37.3774         0.010000   
    275. D(B   9,B   8,B   1,B   0)    -63.4349         0.010000   
    276. D(B   3,B   8,B   2,B   4)   -100.8123         0.010000   
    277. D(B   3,B   8,B   1,B   2)   -138.1897         0.010000   
    278. D(B   3,B   8,B   4,B   6)     63.4349         0.010000   
    279. D(B   1,B   8,B   4,B   2)     37.3774         0.010000   
    280. D(B   1,B   8,B   4,B   9)   -100.8123         0.010000   
    281. D(B   1,B   8,B   4,B   6)      0.0000         0.010000   
    282. D(B   2,B   8,B   4,B   9)   -138.1897         0.010000   
    283. D(B   2,B   8,B   4,B   6)    -37.3774         0.010000   
    284. D(B   9,B   8,B   3,B   7)   -100.8123         0.010000   
    285. D(B   1,B   8,B   3,B  11)    100.8123         0.010000   
    286. D(B   1,B   8,B   3,B   9)    138.1897         0.010000   
    287. D(B   1,B   8,B   3,B   7)     37.3774         0.010000   
    288. D(B   2,B   8,B   4,B  10)   -100.8123         0.010000   
    289. D(B   2,B   8,B   3,B  11)     63.4349         0.010000   
    290. D(B   2,B   8,B   3,B   9)    100.8123         0.010000   
    291. D(B   2,B   8,B   3,B   1)    -37.3774         0.010000   
    292. D(B   1,B   8,B   4,B  10)    -63.4349         0.010000   
    293. D(B   2,B   8,B   3,B   7)     -0.0000         0.010000   
    294. D(B   9,B   8,B   2,B   1)    100.8123         0.010000   
    295. D(B  10,B   9,B   8,B   1)     63.4349         0.010000   
    296. D(B   4,B   9,B   8,B   3)    138.1897         0.010000   
    297. D(B   4,B   9,B   8,B   1)    100.8123         0.010000   
    298. D(B   4,B   9,B   8,B   2)     37.3774         0.010000   
    299. D(B   3,B   9,B   8,B   4)   -138.1897         0.010000   
    300. D(B   3,B   9,B   8,B   1)    -37.3774         0.010000   
    301. D(B   3,B   9,B   8,B   2)   -100.8123         0.010000   
    302. D(B  10,B   9,B   4,B   6)     37.3774         0.010000   
    303. D(B   8,B   9,B   4,B  10)   -138.1897         0.010000   
    304. D(B   8,B   9,B   4,B   2)    -37.3774         0.010000   
    305. D(B   8,B   9,B   4,B   6)   -100.8123         0.010000   
    306. D(B   3,B   9,B   4,B  10)   -100.8123         0.010000   
    307. D(B   3,B   9,B   4,B   2)      0.0000         0.010000   
    308. D(B   3,B   9,B   4,B   8)     37.3774         0.010000   
    309. D(B   3,B   9,B   4,B   6)    -63.4349         0.010000   
    310. D(B  10,B   9,B   3,B   7)      0.0000         0.010000   
    311. D(B   4,B   9,B   3,B  11)    100.8123         0.010000   
    312. D(B   4,B   9,B   3,B   8)    -37.3774         0.010000   
    313. D(B   4,B   9,B   3,B   1)      0.0000         0.010000   
    314. D(B   4,B   9,B   3,B   7)     63.4349         0.010000   
    315. D(B   8,B   9,B   3,B  11)    138.1897         0.010000   
    316. D(B  10,B   9,B   8,B   2)      0.0000         0.010000   
    317. D(B   8,B   9,B   3,B   1)     37.3774         0.010000   
    318. D(B   8,B   9,B   3,B   7)    100.8123         0.010000   
    319. D(B   5,B  10,B   9,B   3)     -0.0000         0.010000   
    320. D(B   6,B  10,B   9,B   4)    -37.3774         0.010000   
    321. D(B   6,B  10,B   9,B   8)     -0.0000         0.010000   
    322. D(B   6,B  10,B   9,B   3)     63.4349         0.010000   
    323. D(B   4,B  10,B   9,B  11)    138.1897         0.010000   
    324. D(B   4,B  10,B   9,B   8)     37.3774         0.010000   
    325. D(B   4,B  10,B   9,B   3)    100.8123         0.010000   
    326. D(B   5,B  10,B   6,B   0)     37.3774         0.010000   
    327. D(B   9,B  10,B   6,B   4)     37.3774         0.010000   
    328. D(B   9,B  10,B   6,B   2)      0.0000         0.010000   
    329. D(B   9,B  10,B   6,B   0)    -63.4349         0.010000   
    330. D(B   4,B  10,B   6,B   2)    -37.3774         0.010000   
    331. D(B   4,B  10,B   6,B   0)   -100.8123         0.010000   
    332. D(B   9,B  10,B   5,B  11)    -37.3774         0.010000   
    333. D(B   9,B  10,B   5,B   0)     63.4349         0.010000   
    334. D(B   9,B  10,B   5,B   6)    100.8123         0.010000   
    335. D(B   9,B  10,B   5,B   7)      0.0000         0.010000   
    336. D(B   4,B  10,B   6,B   5)   -138.1897         0.010000   
    337. D(B   4,B  10,B   5,B  11)   -100.8123         0.010000   
    338. D(B   4,B  10,B   5,B   0)      0.0000         0.010000   
    339. D(B   4,B  10,B   5,B   6)     37.3774         0.010000   
    340. D(B   9,B  10,B   6,B   5)   -100.8123         0.010000   
    341. D(B   4,B  10,B   5,B   7)    -63.4349         0.010000   
    342. D(B   5,B  10,B   4,B   8)     63.4349         0.010000   
    343. D(B   5,B  10,B   4,B   6)    -37.3774         0.010000   
    344. D(B   6,B  10,B   4,B   2)     37.3774         0.010000   
    345. D(B   6,B  10,B   4,B   9)    138.1897         0.010000   
    346. D(B   6,B  10,B   4,B   8)    100.8123         0.010000   
    347. D(B   9,B  10,B   4,B   2)   -100.8123         0.010000   
    348. D(B   6,B  10,B   9,B  11)    100.8123         0.010000   
    349. D(B   9,B  10,B   4,B   8)    -37.3774         0.010000   
    350. D(B   9,B  10,B   4,B   6)   -138.1897         0.010000   
    351. D(B   9,B  11,B  10,B   4)    -37.3774         0.010000   
    352. D(B   7,B  11,B  10,B   6)     -0.0000         0.010000   
    353. D(B   7,B  11,B  10,B   9)    100.8123         0.010000   
    354. D(B   7,B  11,B  10,B   4)     63.4349         0.010000   
    355. D(B   5,B  11,B  10,B   9)    138.1897         0.010000   
    356. D(B   5,B  11,B  10,B   4)    100.8123         0.010000   
    357. D(B   7,B  11,B   9,B  10)   -100.8123         0.010000   
    358. D(B   7,B  11,B   9,B   8)     -0.0000         0.010000   
    359. D(B   7,B  11,B   9,B   3)     37.3774         0.010000   
    360. D(B   5,B  11,B   9,B  10)    -37.3774         0.010000   
    361. D(B   5,B  11,B   9,B   4)     -0.0000         0.010000   
    362. D(B   5,B  11,B   9,B   8)     63.4349         0.010000   
    363. D(B   5,B  11,B   9,B   3)    100.8123         0.010000   
    364. D(B   9,B  11,B   7,B   1)      0.0000         0.010000   
    365. D(B  10,B  11,B   7,B   3)   -100.8123         0.010000   
    366. D(B  10,B  11,B   7,B   0)      0.0000         0.010000   
    367. D(B  10,B  11,B   7,B   1)    -63.4349         0.010000   
    368. D(B   5,B  11,B   7,B   3)   -138.1897         0.010000   
    369. D(B   5,B  11,B   7,B   0)    -37.3774         0.010000   
    370. D(B   5,B  11,B   7,B   1)   -100.8123         0.010000   
    371. D(B   9,B  11,B   5,B   7)   -100.8123         0.010000   
    372. D(B  10,B  11,B   7,B   5)     37.3774         0.010000   
    373. D(B   9,B  11,B   5,B  10)     37.3774         0.010000   
    374. D(B  10,B  11,B   5,B   0)   -100.8123         0.010000   
    375. D(B  10,B  11,B   5,B   6)    -37.3774         0.010000   
    376. D(B  10,B  11,B   5,B   7)   -138.1897         0.010000   
    377. D(B   7,B  11,B   5,B   0)     37.3774         0.010000   
    378. D(B   7,B  11,B   5,B   6)    100.8123         0.010000   
    379. D(B   7,B  11,B   5,B  10)    138.1897         0.010000   
    380. D(B   7,B  11,B   9,B   4)    -63.4349         0.010000   
    381. D(B  10,B  11,B   3,B   7)    100.8123         0.010000   
    382. D(B   7,B  11,B   3,B   9)   -138.1897         0.010000   
    383. D(B   7,B  11,B   3,B   8)   -100.8123         0.010000   
    384. D(B   5,B  11,B  10,B   6)     37.3774         0.010000   
    385. D(B   7,B  11,B   3,B   1)    -37.3774         0.010000   
    386. D(B   5,B  11,B   3,B   9)   -100.8123         0.010000   
    387. D(B   5,B  11,B   3,B   8)    -63.4349         0.010000   
    388. D(B   7,B  11,B  10,B   5)    -37.3774         0.010000   
    389. D(B   5,B  11,B   3,B   1)      0.0000         0.010000   
    390. D(B   5,B  11,B   3,B   7)     37.3774         0.010000   
    -----------------------------------------------------------------

Number of atoms                         .... 12
Number of degrees of freedom            .... 390


         *************************************************************
         *                GEOMETRY OPTIMIZATION CYCLE   1            *
         *************************************************************
---------------------------------
CARTESIAN COORDINATES (ANGSTROEM)
---------------------------------
  B      0.000000   -1.250000   -2.022542
  B     -1.250000   -2.022542    0.000000
  B     -2.022542    0.000000   -1.250000
  B      0.000000   -1.250000    2.022542
  B     -1.250000    2.022542    0.000000
  B      2.022542    0.000000   -1.250000
  B      0.000000    1.250000   -2.022542
  B      1.250000   -2.022542    0.000000
  B     -2.022542    0.000000    1.250000
  B      0.000000    1.250000    2.022542
  B      1.250000    2.022542    0.000000
  B      2.022542    0.000000    1.250000

----------------------------
CARTESIAN COORDINATES (A.U.)
----------------------------
  NO LB      ZA    FRAG     MASS         X           Y           Z
   0 B     5.0000    0    10.810    0.000000   -2.362158   -3.822051
   1 B     5.0000    0    10.810   -2.362158   -3.822051    0.000000
   2 B     5.0000    0    10.810   -3.822051    0.000000   -2.362158
   3 B     5.0000    0    10.810    0.000000   -2.362158    3.822051
   4 B     5.0000    0    10.810   -2.362158    3.822051    0.000000
   5 B     5.0000    0    10.810    3.822051    0.000000   -2.362158
   6 B     5.0000    0    10.810    0.000000    2.362158   -3.822051
   7 B     5.0000    0    10.810    2.362158   -3.822051    0.000000
   8 B     5.0000    0    10.810   -3.822051    0.000000    2.362158
   9 B     5.0000    0    10.810    0.000000    2.362158    3.822051
  10 B     5.0000    0    10.810    2.362158    3.822051    0.000000
  11 B     5.0000    0    10.810    3.822051    0.000000    2.362158

--------------------------------
INTERNAL COORDINATES (ANGSTROEM)
--------------------------------
 B      0   0   0     0.000000000000     0.00000000     0.00000000
 B      1   0   0     2.500000004542     0.00000000     0.00000000
 B      1   2   0     2.500000004542    60.00000000     0.00000000
 B      2   1   3     2.500000004542   108.00000003   259.18768315
 B      3   1   2     2.500000004542   107.99999992   100.81231704
 B      1   2   3     2.500000004542   107.99999992   100.81231704
 B      1   2   3     2.500000000000   108.00000006    37.37736816
 B      2   1   3     2.500000000000    60.00000006   221.81031486
 B      3   1   2     2.500000000000   108.00000006    37.37736816
 B      4   2   1     2.500000000000   108.00000006    63.43494870
 B      5   3   1     2.500000000000   108.00000006     0.00000000
 B      6   1   2     2.500000000000   108.00000006     0.00000000

---------------------------
INTERNAL COORDINATES (A.U.)
---------------------------
 B      0   0   0     0.000000000000     0.00000000     0.00000000
 B      1   0   0     4.724315343387     0.00000000     0.00000000
 B      1   2   0     4.724315343387    60.00000000     0.00000000
 B      2   1   3     4.724315343387   108.00000003   259.18768315
 B      3   1   2     4.724315343387   107.99999992   100.81231704
 B      1   2   3     4.724315343387   107.99999992   100.81231704
 B      1   2   3     4.724315334803   108.00000006    37.37736816
 B      2   1   3     4.724315334803    60.00000006   221.81031486
 B      3   1   2     4.724315334803   108.00000006    37.37736816
 B      4   2   1     4.724315334803   108.00000006    63.43494870
 B      5   3   1     4.724315334803   108.00000006     0.00000000
 B      6   1   2     4.724315334803   108.00000006     0.00000000

---------------------
BASIS SET INFORMATION
---------------------
There are 1 groups of distinct atoms

 Group   1 Type B   : 7s4p1d contracted to 3s2p1d pattern {511/31/1}

Atom   0B    basis set group =>   1
Atom   1B    basis set group =>   1
Atom   2B    basis set group =>   1
Atom   3B    basis set group =>   1
Atom   4B    basis set group =>   1
Atom   5B    basis set group =>   1
Atom   6B    basis set group =>   1
Atom   7B    basis set group =>   1
Atom   8B    basis set group =>   1
Atom   9B    basis set group =>   1
Atom  10B    basis set group =>   1
Atom  11B    basis set group =>   1
---------------------------------
AUXILIARY/J BASIS SET INFORMATION
---------------------------------
There are 1 groups of distinct atoms

 Group   1 Type B   : 12s5p4d2f1g contracted to 6s4p3d1f1g pattern {711111/2111/211/2/1}

Atom   0B    basis set group =>   1
Atom   1B    basis set group =>   1
Atom   2B    basis set group =>   1
Atom   3B    basis set group =>   1
Atom   4B    basis set group =>   1
Atom   5B    basis set group =>   1
Atom   6B    basis set group =>   1
Atom   7B    basis set group =>   1
Atom   8B    basis set group =>   1
Atom   9B    basis set group =>   1
Atom  10B    basis set group =>   1
Atom  11B    basis set group =>   1


           ************************************************************
           *        Program running with 8 parallel MPI-processes     *
           *              working on a common directory               *
           ************************************************************
------------------------------------------------------------------------------
                             ORCA STARTUP CALCULATIONS
                           -- RI-GTO INTEGRALS CHOSEN --
------------------------------------------------------------------------------
------------------------------------------------------------------------------
                   ___                                                        
                  /   \      - P O W E R E D   B Y -                         
                 /     \                                                     
                 |  |  |   _    _      __       _____    __    __             
                 |  |  |  | |  | |    /  \     |  _  \  |  |  /  |          
                  \  \/   | |  | |   /    \    | | | |  |  | /  /          
                 / \  \   | |__| |  /  /\  \   | |_| |  |  |/  /          
                |  |  |   |  __  | /  /__\  \  |    /   |      \           
                |  |  |   | |  | | |   __   |  |    \   |  |\   \          
                \     /   | |  | | |  |  |  |  | |\  \  |  | \   \       
                 \___/    |_|  |_| |__|  |__|  |_| \__\ |__|  \__/        
                                                                              
                      - O R C A' S   B I G   F R I E N D -                    
                                      &                                       
                       - I N T E G R A L  F E E D E R -                       
                                                                              
 v1 FN, 2020, v2 2021, v3 2022-2024                                           
------------------------------------------------------------------------------


----------------------
SHARK INTEGRAL PACKAGE
----------------------

Number of atoms                             ...     12
Number of basis functions                   ...    168
Number of shells                            ...     72
Maximum angular momentum                    ...      2
Integral batch strategy                     ... SHARK/LIBINT Hybrid
RI-J (if used) integral strategy            ... SPLIT-RIJ (Revised 2003 algorithm where possible)
Printlevel                                  ...      1
Contraction scheme used                     ... SEGMENTED contraction
Prescreening option                         ... SCHWARTZ
   Thresh                                   ... 2.500e-11
   Tcut                                     ... 2.500e-12
   Tpresel                                  ... 2.500e-12 
Coulomb Range Separation                    ... NOT USED
Exchange Range Separation                   ... NOT USED
Multipole approximations                    ... NOT USED
Finite Nucleus Model                        ... NOT USED
CABS basis                                  ... NOT available
Auxiliary Coulomb fitting basis             ... AVAILABLE
   # of basis functions in Aux-J            ...    588
   # of shells in Aux-J                     ...    180
   Maximum angular momentum in Aux-J        ...      4
Auxiliary J/K fitting basis                 ... NOT available
Auxiliary Correlation fitting basis         ... NOT available
Auxiliary 'external' fitting basis          ... NOT available

Checking pre-screening integrals            ... done (  0.0 sec) Dimension = 72
   => SHARK Basis and OBASIS are compatible. Storing Pre-screening
Shell pair information
Shell pair cut-off parameter TPreSel        ...   2.5e-12
Total number of shell pairs                 ...      2628
Shell pairs after pre-screening             ...      2550
Total number of primitive shell pairs       ...     10596
Primitive shell pairs kept                  ...      7608
          la=0 lb=0:    600 shell pairs
          la=1 lb=0:    864 shell pairs
          la=1 lb=1:    300 shell pairs
          la=2 lb=0:    420 shell pairs
          la=2 lb=1:    288 shell pairs
          la=2 lb=2:     78 shell pairs

Checking whether 4 symmetric matrices of dimension 168 fit in memory
:Max Core in MB      =   2500.00
 MB in use           =      6.83
 MB left             =   2493.17
 MB needed           =      0.43
 Data fit in memory  = YES
Calculating RI/J V-Matrix + Cholesky decomp.... done (  0.0 sec)
Calculating Nuclear repulsion               ... done (  0.0 sec) ENN=    273.560307666397 Eh

Diagonalization of the overlap matrix:
Smallest eigenvalue                        ... 4.066e-03
Time for diagonalization                   ...    0.003 sec
Threshold for overlap eigenvalues          ... 1.000e-07
Number of eigenvalues below threshold      ... 0
Time for construction of square roots      ...    0.002 sec
Total time needed                          ...    0.008 sec

-------------------
DFT GRID GENERATION
-------------------

General Integration Accuracy     IntAcc      ... 4.388
Radial Grid Type                 RadialGrid  ... OptM3 with GC (2021)
Angular Grid (max. ang.)         AngularGrid ... 4 (Lebedev-302)
Angular grid pruning method      GridPruning ... 4 (adaptive)
Weight generation scheme         WeightScheme... mBecke (2022)
Basis function cutoff            BFCut       ... 1.0000e-11
Integration weight cutoff        WCut        ... 1.0000e-14
Partially contracted basis set               ... off
Rotationally invariant grid construction     ... off
Angular grids for H and He will be reduced by one unit

Total number of grid points                  ...    72144
Total number of batches                      ...     1133
Average number of points per batch           ...       63
Average number of grid points per atom       ...     6012
Grids setup in   0.8 sec
Initializing property integral containers    ... done (  0.0 sec)

SHARK setup successfully completed in   1.1 seconds

Maximum memory used throughout the entire STARTUP-calculation: 20.0 MB


           ************************************************************
           *        Program running with 8 parallel MPI-processes     *
           *              working on a common directory               *
           ************************************************************
-------------------------------------------------------------------------------
                                 ORCA GUESS
                   Start orbitals & Density for SCF / CASSCF
-------------------------------------------------------------------------------

------------
SCF SETTINGS
------------
Hamiltonian:
 Density Functional     Method          .... DFT(GTOs)
 Exchange Functional    Exchange        .... B88
   X-Alpha parameter    XAlpha          ....  0.666667
   Becke's b parameter  XBeta           ....  0.004200
 Correlation Functional Correlation     .... P86
 LDA part of GGA corr.  LDAOpt          .... PW91-LDA
 Gradients option       PostSCFGGA      .... off
   NL short-range parameter             ....  4.400000
 RI-approximation to the Coulomb term is turned on
   Number of AuxJ basis functions       .... 588


General Settings:
 Integral files         IntName         .... icosahedron_nn2.50
 Hartree-Fock type      HFTyp           .... RHF
 Total Charge           Charge          ....    0
 Multiplicity           Mult            ....    1
 Number of Electrons    NEL             ....   60
 Basis Dimension        Dim             ....  168
 Nuclear Repulsion      ENuc            ....    273.5603076664 Eh

Convergence Acceleration:
 AO-DIIS                CNVDIIS         .... on
   Start iteration      DIISMaxIt       ....     0
   Startup error        DIISStart       ....  0.200000
   # of expansion vecs  DIISMaxEq       ....     5
   Bias factor          DIISBfac        ....   1.050
   Max. coefficient     DIISMaxC        ....  10.000
 MO-DIIS                CNVKDIIS        .... off
 Trust-Rad. Augm. Hess. CNVTRAH         .... auto
   Auto Start mean grad. ratio tolernc. ....  1.125000
   Auto Start start iteration           ....    50
   Auto Start num. interpolation iter.  ....    10
   Max. Number of Micro iterations      ....    24
   Max. Number of Macro iterations      .... Maxiter - #DIIS iter
   Number of Davidson start vectors     ....     2
   Converg. threshold    (grad. norm)   ....   1.000e-05
   Grad. Scal. Fac. for Micro threshold ....   0.100
   Minimum threshold for Micro iter.    ....   1.000e-02
   NR start threshold (gradient norm)   ....   1.000e-04
   Initial trust radius                 ....   0.400
   Minimum AH scaling param. (alpha)    ....   1.000
   Maximum AH scaling param. (alpha)    .... 1000.000
   Quad. conv. algorithm                .... NR
   White noise on init. David. guess    .... on
   Maximum white noise                  ....   0.010
   Pseudo random numbers                .... off
   Inactive MOs                         .... canonical
   Orbital update algorithm             .... Taylor
   Preconditioner                       .... Diag
   Full preconditioner red. dimension   ....   250
 SOSCF                 CNVSOSCF           .... on
   Start iteration     SOSCFMaxIt         ....   150
   Startup grad/error  SOSCFStart         ....  0.001000
   Hessian update      SOSCFHessUp        .... L-BFGS
   Autom. constraints  SOSCFAutoConstrain .... off
 Level Shifting         CNVShift        .... on
   Level shift para.    LevelShift      ....    0.2500
   Turn off err/grad.   ShiftErr        ....    0.0000
 Zerner damping         CNVZerner       .... off
 Static damping         CNVDamp         .... on
   Fraction old density DampFac         ....    0.8500
   Max. Damping (<1)    DampMax         ....    0.9800
   Min. Damping (>=0)   DampMin         ....    0.0000
   Turn off err/grad.   DampErr         ....    0.0300

SCF Procedure:
 Maximum # iterations   MaxIter         ....   125
 SCF integral mode      SCFMode         .... Direct
   Integral package                     .... SHARK and LIBINT hybrid scheme
 Reset frequency        DirectResetFreq ....    20
 Integral Threshold     Thresh          ....  2.500e-11 Eh
 Primitive CutOff       TCut            ....  2.500e-12 Eh

Convergence Tolerance:
 Convergence Check Mode ConvCheckMode   .... Total+1el-Energy
 Convergence forced     ConvForced      .... 0
 Energy Change          TolE            ....  1.000e-08 Eh
 1-El. energy change                    ....  1.000e-05 Eh
 Orbital Gradient       TolG            ....  1.000e-05
 Orbital Rotation angle TolX            ....  1.000e-05
 DIIS Error             TolErr          ....  5.000e-07

------------------------------
INITIAL GUESS: MODEL POTENTIAL
------------------------------
Loading Hartree-Fock densities                     ... done
Calculating cut-offs                               ... done
Initializing the effective Hamiltonian             ... done
Setting up the integral package (SHARK)            ... done
Starting the Coulomb interaction                   ... done (   0.0 sec)
Making the grid                                    ... done (   0.2 sec)
Mapping shells                                     ... done
Starting the XC term evaluation                    ... done (   0.1 sec)
  promolecular density results
     # of electrons  =     60.015991436
     EX              =    -44.621796057
     EC              =     -1.826053701
     EX+EC           =    -46.447849758
Transforming the Hamiltonian                       ... done (   0.0 sec)
Diagonalizing the Hamiltonian                      ... done (   0.0 sec)
Back transforming the eigenvectors                 ... done (   0.0 sec)
Now organizing SCF variables                       ... done
                      ------------------
                      INITIAL GUESS DONE (   0.4 sec)
                      ------------------
             **** ENERGY FILE WAS UPDATED (icosahedron_nn2.50.en.tmp) ****
Finished Guess after   1.3 sec
Maximum memory used throughout the entire GUESS-calculation: 9.6 MB


           ************************************************************
           *        Program running with 8 parallel MPI-processes     *
           *              working on a common directory               *
           ************************************************************

-------------------------------------------------------------------------------------------
                                      ORCA LEAN-SCF
                              memory conserving SCF solver
-------------------------------------------------------------------------------------------

----------------------------------------D-I-I-S--------------------------------------------
Iteration    Energy (Eh)           Delta-E    RMSDP     MaxDP     DIISErr   Damp  Time(sec)
-------------------------------------------------------------------------------------------
               ***  Starting incremental Fock matrix formation  ***
    1    -296.4909096043701311     0.00e+00  2.69e-03  1.96e-02  2.81e-02  0.850   0.3
Warning: op=0 Small HOMO/LUMO gap (  -0.035) - skipping pre-diagonalization
         Will do a full diagonalization
    2    -296.5012248395464667    -1.03e-02  3.22e-03  1.90e-02  2.18e-02  0.850   0.4
                               ***Turning on AO-DIIS***
    3    -296.5079629925907057    -6.74e-03  1.96e-03  1.13e-02  1.31e-02  0.850   0.4
    4    -296.5109471887635664    -2.98e-03  8.93e-03  6.34e-02  7.66e-03  0.000   0.3
    5    -296.5139534295867634    -3.01e-03  1.89e-03  1.04e-02  1.49e-02  0.000   0.3
    6    -296.5193302488452218    -5.38e-03  1.06e-03  5.64e-03  8.05e-03  0.000   0.3
    7    -296.5209011875324450    -1.57e-03  6.09e-04  4.13e-03  4.35e-03  0.000   0.3
    8    -296.5213547151605553    -4.54e-04  3.53e-04  2.53e-03  2.31e-03  0.000   0.5
    9    -296.5214985754664667    -1.44e-04  2.32e-04  1.79e-03  1.24e-03  0.000   0.4
                              *** Initializing SOSCF ***
---------------------------------------S-O-S-C-F--------------------------------------
Iteration    Energy (Eh)           Delta-E    RMSDP     MaxDP     MaxGrad    Time(sec)
--------------------------------------------------------------------------------------
   10    -296.5215479900771243    -4.94e-05  1.51e-04  9.12e-04  6.04e-04     0.3
               *** Restarting incremental Fock matrix formation ***
   11    -296.5215696667436305    -2.17e-05  2.88e-04  2.13e-03  6.45e-04     0.3
   12    -296.5215756667430469    -6.00e-06  2.25e-04  1.79e-03  4.93e-04     0.3
   13    -296.5215918678513844    -1.62e-05  2.21e-04  8.02e-04  2.73e-04     0.4
   14    -296.5215987691566397    -6.90e-06  4.19e-04  1.75e-03  3.22e-04     0.3
   15    -296.5216092623368240    -1.05e-05  8.98e-04  3.70e-03  3.76e-04     0.3
   16    -296.5216299050526914    -2.06e-05  2.26e-03  9.21e-03  5.69e-04     0.3
   17    -296.5216729544514465    -4.30e-05  1.32e-03  4.89e-03  7.12e-04     0.3
   18    -296.5216993994951054    -2.64e-05  2.20e-03  7.91e-03  7.33e-04     0.4
   19    -296.5216475992044707     5.18e-05  1.65e-03  6.09e-03  1.84e-03     0.3
   20    -296.5217176235448733    -7.00e-05  3.23e-04  1.29e-03  2.96e-04     0.3
   21    -296.5217187377174923    -1.11e-06  9.38e-05  5.97e-04  2.49e-04     0.3
   22    -296.5217211421679622    -2.40e-06  1.37e-04  9.08e-04  1.80e-04     0.3
   23    -296.5217183949828268     2.75e-06  8.99e-05  6.56e-04  3.72e-04     0.3
   24    -296.5217222714215950    -3.88e-06  1.32e-04  5.11e-04  1.07e-04     0.4
   25    -296.5217221063974193     1.65e-07  4.41e-05  2.98e-04  1.33e-04     0.3
   26    -296.5217228185209706    -7.12e-07  1.61e-04  7.44e-04  1.10e-04     0.4
   27    -296.5217226581274872     1.60e-07  1.17e-04  4.46e-04  1.82e-04     0.3
   28    -296.5217244779348675    -1.82e-06  2.36e-04  8.81e-04  9.92e-05     0.4
   29    -296.5217263924207600    -1.91e-06  9.73e-04  3.78e-03  7.82e-05     1.0
   30    -296.5217317364750897    -5.34e-06  1.14e-03  4.38e-03  3.54e-04     0.3
               *** Restarting incremental Fock matrix formation ***
   31    -296.5217393299678861    -7.59e-06  2.02e-03  7.50e-03  4.81e-04     0.6
   32    -296.5217552742391263    -1.59e-05  1.29e-03  4.38e-03  6.64e-04     0.4
   33    -296.5217754857741284    -2.02e-05  7.23e-04  2.66e-03  3.40e-04     0.4
   34    -296.5217861143031541    -1.06e-05  7.44e-04  2.82e-03  2.40e-04     0.4
   35    -296.5217925060942434    -6.39e-06  3.01e-04  1.10e-03  1.29e-04     0.4
   36    -296.5217941390180840    -1.63e-06  6.11e-04  2.25e-03  7.54e-05     0.8
   37    -296.5217941638178445    -2.48e-08  3.84e-04  1.44e-03  1.03e-04     1.8
   38    -296.5217944218927641    -2.58e-07  9.86e-05  5.23e-04  9.49e-05     1.0
   39    -296.5217947076768041    -2.86e-07  1.49e-04  5.51e-04  5.21e-05     0.3
   40    -296.5217949265182824    -2.19e-07  1.90e-05  7.49e-05  1.38e-05     0.3
   41    -296.5217949429177224    -1.64e-08  4.29e-05  1.73e-04  8.27e-06     0.3
   42    -296.5217949627892722    -1.99e-08  2.65e-05  1.10e-04  8.89e-06     0.3
   43    -296.5217949704394869    -7.65e-09  1.57e-05  6.55e-05  5.15e-06     0.4
                 **** Energy Check signals convergence ****

               *****************************************************
               *                     SUCCESS                       *
               *           SCF CONVERGED AFTER  43 CYCLES          *
               *****************************************************

             **** ENERGY FILE WAS UPDATED (icosahedron_nn2.50.en.tmp) ****

----------------
TOTAL SCF ENERGY
----------------

Total Energy       :       -296.52179497369968 Eh           -8068.76825 eV

Components:
Nuclear Repulsion  :        273.56030766639674 Eh            7443.95441 eV
Electronic Energy  :       -570.08210264009631 Eh          -15512.72266 eV
One Electron Energy:       -934.65260540894519 Eh          -25433.19039 eV
Two Electron Energy:        364.57050276884883 Eh            9920.46773 eV

Virial components:
Potential Energy   :       -587.06625314643497 Eh          -15974.88490 eV
Kinetic Energy     :        290.54445817273535 Eh            7906.11665 eV
Virial Ratio       :          2.02057288181835

DFT components:
N(Alpha)           :       30.000247616994 electrons
N(Beta)            :       30.000247616994 electrons
N(Total)           :       60.000495233989 electrons
E(X)               :      -44.662439438850 Eh       
E(C)               :       -1.863298237930 Eh       
E(XC)              :      -46.525737676780 Eh       

---------------
SCF CONVERGENCE
---------------

  Last Energy change         ...    7.6502e-09  Tolerance :   1.0000e-08
  Last MAX-Density change    ...    6.5462e-05  Tolerance :   1.0000e-07
  Last RMS-Density change    ...    1.5681e-05  Tolerance :   5.0000e-09
  Last DIIS Error            ...    6.0368e-04  Tolerance :   5.0000e-07
  Last Orbital Gradient      ...    5.1498e-06  Tolerance :   1.0000e-05
  Last Orbital Rotation      ...    4.7764e-04  Tolerance :   1.0000e-05


----------------
ORBITAL ENERGIES
----------------

  NO   OCC          E(Eh)            E(eV) 
   0   2.0000      -6.677305      -181.6987 
   1   2.0000      -6.677298      -181.6985 
   2   2.0000      -6.677233      -181.6968 
   3   2.0000      -6.677228      -181.6966 
   4   2.0000      -6.677214      -181.6962 
   5   2.0000      -6.677122      -181.6937 
   6   2.0000      -6.659056      -181.2021 
   7   2.0000      -6.659046      -181.2019 
   8   2.0000      -6.658988      -181.2003 
   9   2.0000      -6.658975      -181.1999 
  10   2.0000      -6.658963      -181.1996 
  11   2.0000      -6.658868      -181.1970 
  12   2.0000      -0.524385       -14.2692 
  13   2.0000      -0.462701       -12.5907 
  14   2.0000      -0.462700       -12.5907 
  15   2.0000      -0.453366       -12.3367 
  16   2.0000      -0.369307       -10.0494 
  17   2.0000      -0.369305       -10.0493 
  18   2.0000      -0.360864        -9.8196 
  19   2.0000      -0.360569        -9.8116 
  20   2.0000      -0.360565        -9.8115 
  21   2.0000      -0.281510        -7.6603 
  22   2.0000      -0.271478        -7.3873 
  23   2.0000      -0.271472        -7.3871 
  24   2.0000      -0.246290        -6.7019 
  25   2.0000      -0.245802        -6.6886 
  26   2.0000      -0.239047        -6.5048 
  27   2.0000      -0.239043        -6.5047 
  28   2.0000      -0.236692        -6.4407 
  29   2.0000      -0.188206        -5.1214 
  30   0.0000      -0.197679        -5.3791 
  31   0.0000      -0.197678        -5.3791 
  32   0.0000      -0.183240        -4.9862 
  33   0.0000      -0.183238        -4.9862 
  34   0.0000      -0.176079        -4.7913 
  35   0.0000      -0.174653        -4.7526 
  36   0.0000      -0.174648        -4.7524 
  37   0.0000      -0.107817        -2.9339 
  38   0.0000      -0.103639        -2.8201 
  39   0.0000      -0.103636        -2.8201 
  40   0.0000      -0.102250        -2.7824 
*Only the first 10 virtual orbitals were printed.

                    ********************************
                    * MULLIKEN POPULATION ANALYSIS *
                    ********************************

-----------------------
MULLIKEN ATOMIC CHARGES
-----------------------
   0 B :    0.026508
   1 B :    0.026535
   2 B :   -0.026543
   3 B :   -0.026501
   4 B :   -0.026498
   5 B :    0.026467
   6 B :   -0.026473
   7 B :   -0.026490
   8 B :    0.026499
   9 B :    0.026505
  10 B :    0.026503
  11 B :   -0.026512
Sum of atomic charges:   -0.0000000

--------------------------------
MULLIKEN REDUCED ORBITAL CHARGES
--------------------------------
  0 B s       :     3.715409  s :     3.715409
      pz      :     0.322370  p :     1.241809
      px      :     0.489854
      py      :     0.429585
      dz2     :     0.003086  d :     0.016274
      dxz     :     0.003853
      dyz     :     0.002294
      dx2y2   :     0.003457
      dxy     :     0.003584

  1 B s       :     3.715429  s :     3.715429
      pz      :     0.489873  p :     1.241761
      px      :     0.429619
      py      :     0.322269
      dz2     :     0.002866  d :     0.016275
      dxz     :     0.003584
      dyz     :     0.003853
      dx2y2   :     0.003678
      dxy     :     0.002294

  2 B s       :     3.677597  s :     3.677597
      pz      :     0.440099  p :     1.333368
      px      :     0.446934
      py      :     0.446335
      dz2     :     0.003526  d :     0.015578
      dxz     :     0.002251
      dyz     :     0.003426
      dx2y2   :     0.002691
      dxy     :     0.003684

  3 B s       :     3.677609  s :     3.677609
      pz      :     0.446748  p :     1.333314
      px      :     0.446401
      py      :     0.440165
      dz2     :     0.003003  d :     0.015578
      dxz     :     0.003684
      dyz     :     0.002251
      dx2y2   :     0.003214
      dxy     :     0.003427

  4 B s       :     3.677602  s :     3.677602
      pz      :     0.446390  p :     1.333318
      px      :     0.440192
      py      :     0.446735
      dz2     :     0.002796  d :     0.015578
      dxz     :     0.003427
      dyz     :     0.003684
      dx2y2   :     0.003420
      dxy     :     0.002251

  5 B s       :     3.715404  s :     3.715404
      pz      :     0.429647  p :     1.241855
      px      :     0.322391
      py      :     0.489817
      dz2     :     0.003863  d :     0.016275
      dxz     :     0.002294
      dyz     :     0.003584
      dx2y2   :     0.002680
      dxy     :     0.003853

  6 B s       :     3.677604  s :     3.677604
      pz      :     0.446852  p :     1.333291
      px      :     0.446409
      py      :     0.440030
      dz2     :     0.003003  d :     0.015578
      dxz     :     0.003684
      dyz     :     0.002251
      dx2y2   :     0.003214
      dxy     :     0.003426

  7 B s       :     3.677600  s :     3.677600
      pz      :     0.446378  p :     1.333312
      px      :     0.440020
      py      :     0.446913
      dz2     :     0.002797  d :     0.015578
      dxz     :     0.003426
      dyz     :     0.003684
      dx2y2   :     0.003421
      dxy     :     0.002251

  8 B s       :     3.715414  s :     3.715414
      pz      :     0.429657  p :     1.241813
      px      :     0.322318
      py      :     0.489839
      dz2     :     0.003863  d :     0.016274
      dxz     :     0.002295
      dyz     :     0.003584
      dx2y2   :     0.002680
      dxy     :     0.003852

  9 B s       :     3.715407  s :     3.715407
      pz      :     0.322344  p :     1.241813
      px      :     0.489840
      py      :     0.429629
      dz2     :     0.003087  d :     0.016275
      dxz     :     0.003853
      dyz     :     0.002294
      dx2y2   :     0.003457
      dxy     :     0.003584

 10 B s       :     3.715418  s :     3.715418
      pz      :     0.489834  p :     1.241804
      px      :     0.429651
      py      :     0.322319
      dz2     :     0.002866  d :     0.016275
      dxz     :     0.003584
      dyz     :     0.003853
      dx2y2   :     0.003679
      dxy     :     0.002294

 11 B s       :     3.677587  s :     3.677587
      pz      :     0.440128  p :     1.333347
      px      :     0.446877
      py      :     0.446342
      dz2     :     0.003525  d :     0.015578
      dxz     :     0.002251
      dyz     :     0.003426
      dx2y2   :     0.002691
      dxy     :     0.003684



                     *******************************
                     * LOEWDIN POPULATION ANALYSIS *
                     *******************************

----------------------
LOEWDIN ATOMIC CHARGES
----------------------
   0 B :    0.039826
   1 B :    0.039866
   2 B :   -0.039888
   3 B :   -0.039808
   4 B :   -0.039812
   5 B :    0.039784
   6 B :   -0.039775
   7 B :   -0.039805
   8 B :    0.039824
   9 B :    0.039821
  10 B :    0.039823
  11 B :   -0.039856

-------------------------------
LOEWDIN REDUCED ORBITAL CHARGES
-------------------------------
  0 B s       :     3.392702  s :     3.392702
      pz      :     0.417869  p :     1.536860
      px      :     0.590770
      py      :     0.528221
      dz2     :     0.005488  d :     0.030613
      dxz     :     0.007351
      dyz     :     0.003825
      dx2y2   :     0.006838
      dxy     :     0.007111

  1 B s       :     3.392719  s :     3.392719
      pz      :     0.590784  p :     1.536802
      px      :     0.528246
      py      :     0.417772
      dz2     :     0.005536  d :     0.030613
      dxz     :     0.007112
      dyz     :     0.007350
      dx2y2   :     0.006790
      dxy     :     0.003825

  2 B s       :     3.361026  s :     3.361026
      pz      :     0.546573  p :     1.649186
      px      :     0.546122
      py      :     0.556491
      dz2     :     0.006920  d :     0.029675
      dxz     :     0.003713
      dyz     :     0.006915
      dx2y2   :     0.004902
      dxy     :     0.007225

  3 B s       :     3.361041  s :     3.361041
      pz      :     0.545924  p :     1.649091
      px      :     0.556544
      py      :     0.546623
      dz2     :     0.005407  d :     0.029676
      dxz     :     0.007226
      dyz     :     0.003713
      dx2y2   :     0.006414
      dxy     :     0.006916

  4 B s       :     3.361036  s :     3.361036
      pz      :     0.556537  p :     1.649101
      px      :     0.546649
      py      :     0.545915
      dz2     :     0.005405  d :     0.029676
      dxz     :     0.006916
      dyz     :     0.007226
      dx2y2   :     0.006416
      dxy     :     0.003713

  5 B s       :     3.392696  s :     3.392696
      pz      :     0.528282  p :     1.536907
      px      :     0.417888
      py      :     0.590738
      dz2     :     0.007465  d :     0.030613
      dxz     :     0.003825
      dyz     :     0.007111
      dx2y2   :     0.004861
      dxy     :     0.007351

  6 B s       :     3.361037  s :     3.361037
      pz      :     0.546022  p :     1.649063
      px      :     0.556550
      py      :     0.546491
      dz2     :     0.005407  d :     0.029676
      dxz     :     0.007226
      dyz     :     0.003713
      dx2y2   :     0.006414
      dxy     :     0.006915

  7 B s       :     3.361033  s :     3.361033
      pz      :     0.556524  p :     1.649096
      px      :     0.546485
      py      :     0.546087
      dz2     :     0.005405  d :     0.029676
      dxz     :     0.006916
      dyz     :     0.007225
      dx2y2   :     0.006417
      dxy     :     0.003713

  8 B s       :     3.392706  s :     3.392706
      pz      :     0.528287  p :     1.536857
      px      :     0.417816
      py      :     0.590754
      dz2     :     0.007465  d :     0.030613
      dxz     :     0.003826
      dyz     :     0.007111
      dx2y2   :     0.004861
      dxy     :     0.007350

  9 B s       :     3.392700  s :     3.392700
      pz      :     0.417845  p :     1.536866
      px      :     0.590754
      py      :     0.528267
      dz2     :     0.005489  d :     0.030613
      dxz     :     0.007351
      dyz     :     0.003825
      dx2y2   :     0.006838
      dxy     :     0.007111

 10 B s       :     3.392705  s :     3.392705
      pz      :     0.590750  p :     1.536858
      px      :     0.528286
      py      :     0.417822
      dz2     :     0.005536  d :     0.030613
      dxz     :     0.007111
      dyz     :     0.007350
      dx2y2   :     0.006792
      dxy     :     0.003824

 11 B s       :     3.361018  s :     3.361018
      pz      :     0.546599  p :     1.649162
      px      :     0.546065
      py      :     0.556498
      dz2     :     0.006920  d :     0.029676
      dxz     :     0.003713
      dyz     :     0.006915
      dx2y2   :     0.004901
      dxy     :     0.007226



                      *****************************
                      * MAYER POPULATION ANALYSIS *
                      *****************************

  NA   - Mulliken gross atomic population
  ZA   - Total nuclear charge
  QA   - Mulliken gross atomic charge
  VA   - Mayer's total valence
  BVA  - Mayer's bonded valence
  FA   - Mayer's free valence

  ATOM       NA         ZA         QA         VA         BVA        FA
  0 B      4.9735     5.0000     0.0265     2.3068     2.3068    -0.0000
  1 B      4.9735     5.0000     0.0265     2.3067     2.3067     0.0000
  2 B      5.0265     5.0000    -0.0265     2.4603     2.4603    -0.0000
  3 B      5.0265     5.0000    -0.0265     2.4602     2.4602    -0.0000
  4 B      5.0265     5.0000    -0.0265     2.4603     2.4603     0.0000
  5 B      4.9735     5.0000     0.0265     2.3069     2.3069    -0.0000
  6 B      5.0265     5.0000    -0.0265     2.4602     2.4602     0.0000
  7 B      5.0265     5.0000    -0.0265     2.4603     2.4603    -0.0000
  8 B      4.9735     5.0000     0.0265     2.3068     2.3068    -0.0000
  9 B      4.9735     5.0000     0.0265     2.3068     2.3068     0.0000
 10 B      4.9735     5.0000     0.0265     2.3068     2.3068     0.0000
 11 B      5.0265     5.0000    -0.0265     2.4603     2.4603    -0.0000

  Mayer bond orders larger than 0.100000
B(  0-B ,  1-B ) :   0.3131 B(  0-B ,  2-B ) :   0.3216 B(  0-B ,  4-B ) :   0.1580 
B(  0-B ,  5-B ) :   0.3131 B(  0-B ,  6-B ) :   0.3217 B(  0-B ,  7-B ) :   0.2869 
[...]
      dxz     :     0.015044
      dyz     :     0.014516
      dx2y2   :     0.010665
      dxy     :     0.011940

 10 B s       :     2.847911  s :     2.847911
      pz      :     0.752275  p :     2.115751
      px      :     0.708983
      py      :     0.654493
      dz2     :     0.010444  d :     0.068019
      dxz     :     0.011788
      dyz     :     0.014985
      dx2y2   :     0.016259
      dxy     :     0.014543

 11 B s       :     2.517135  s :     2.517135
      pz      :     0.802960  p :     2.378300
      px      :     0.732482
      py      :     0.842858
      dz2     :     0.015883  d :     0.074079
      dxz     :     0.014742
      dyz     :     0.013619
      dx2y2   :     0.014303
      dxy     :     0.015532



                     *******************************
                     * LOEWDIN POPULATION ANALYSIS *
                     *******************************

----------------------
LOEWDIN ATOMIC CHARGES
----------------------
   0 B :   -0.034818
   1 B :   -0.038942
   2 B :    0.038145
   3 B :    0.038019
   4 B :    0.036849
   5 B :   -0.039118
   6 B :    0.038119
   7 B :    0.036730
   8 B :   -0.039040
   9 B :   -0.034790
  10 B :   -0.039044
  11 B :    0.037890

-------------------------------
LOEWDIN REDUCED ORBITAL CHARGES
-------------------------------
  0 B s       :     2.661938  s :     2.661938
      pz      :     0.723576  p :     2.199412
      px      :     0.740303
      py      :     0.735533
      dz2     :     0.037769  d :     0.173468
      dxz     :     0.041069
      dyz     :     0.029363
      dx2y2   :     0.030645
      dxy     :     0.034623

  1 B s       :     2.667391  s :     2.667391
      pz      :     0.737933  p :     2.198837
      px      :     0.734542
      py      :     0.726362
      dz2     :     0.027070  d :     0.172715
      dxz     :     0.034230
      dyz     :     0.040959
      dx2y2   :     0.040955
      dxy     :     0.029500

  2 B s       :     2.571280  s :     2.571280
      pz      :     0.740351  p :     2.204295
      px      :     0.677249
      py      :     0.786695
      dz2     :     0.043054  d :     0.186281
      dxz     :     0.030070
      dyz     :     0.038591
      dx2y2   :     0.032656
      dxy     :     0.041910

  3 B s       :     2.570946  s :     2.570946
      pz      :     0.677051  p :     2.204485
      px      :     0.786757
      py      :     0.740676
      dz2     :     0.035132  d :     0.186551
      dxz     :     0.042131
      dyz     :     0.030027
      dx2y2   :     0.040208
      dxy     :     0.039053

  4 B s       :     2.572648  s :     2.572648
      pz      :     0.786829  p :     2.204258
      px      :     0.740109
      py      :     0.677320
      dz2     :     0.034786  d :     0.186245
      dxz     :     0.038815
      dyz     :     0.042013
      dx2y2   :     0.040370
      dxy     :     0.030260

  5 B s       :     2.667874  s :     2.667874
      pz      :     0.735206  p :     2.198635
      px      :     0.726690
      py      :     0.736739
      dz2     :     0.037336  d :     0.172609
      dxz     :     0.029375
      dyz     :     0.033959
      dx2y2   :     0.031100
      dxy     :     0.040839

  6 B s       :     2.571040  s :     2.571040
      pz      :     0.676804  p :     2.204361
      px      :     0.786859
      py      :     0.740698
      dz2     :     0.035120  d :     0.186480
      dxz     :     0.042093
      dyz     :     0.029998
      dx2y2   :     0.040213
      dxy     :     0.039056

  7 B s       :     2.572695  s :     2.572695
      pz      :     0.786680  p :     2.204359
      px      :     0.740037
      py      :     0.677642
      dz2     :     0.034766  d :     0.186215
      dxz     :     0.038777
      dyz     :     0.042013
      dx2y2   :     0.040394
      dxy     :     0.030265

  8 B s       :     2.667586  s :     2.667586
      pz      :     0.735022  p :     2.198769
      px      :     0.726393
      py      :     0.737354
      dz2     :     0.037339  d :     0.172685
      dxz     :     0.029372
      dyz     :     0.033996
      dx2y2   :     0.031103
      dxy     :     0.040875

  9 B s       :     2.662153  s :     2.662153
      pz      :     0.723870  p :     2.199229
      px      :     0.739990
      py      :     0.735370
      dz2     :     0.037755  d :     0.173407
      dxz     :     0.041088
      dyz     :     0.029371
      dx2y2   :     0.030612
      dxy     :     0.034581

 10 B s       :     2.667829  s :     2.667829
      pz      :     0.737611  p :     2.198621
      px      :     0.734336
      py      :     0.726674
      dz2     :     0.027027  d :     0.172594
      dxz     :     0.034176
      dyz     :     0.040939
      dx2y2   :     0.040962
      dxy     :     0.029491

 11 B s       :     2.570823  s :     2.570823
      pz      :     0.740598  p :     2.204594
      px      :     0.676709
      py      :     0.787286
      dz2     :     0.043135  d :     0.186693
      dxz     :     0.030124
      dyz     :     0.038714
      dx2y2   :     0.032747
      dxy     :     0.041973



                      *****************************
                      * MAYER POPULATION ANALYSIS *
                      *****************************

  NA   - Mulliken gross atomic population
  ZA   - Total nuclear charge
  QA   - Mulliken gross atomic charge
  VA   - Mayer's total valence
  BVA  - Mayer's bonded valence
  FA   - Mayer's free valence

  ATOM       NA         ZA         QA         VA         BVA        FA
  0 B      5.0248     5.0000    -0.0248     3.7885     3.7885     0.0000
  1 B      5.0295     5.0000    -0.0295     3.7564     3.7564     0.0000
  2 B      4.9725     5.0000     0.0275     4.3404     4.3404     0.0000
  3 B      4.9709     5.0000     0.0291     4.3393     4.3393     0.0000
  4 B      4.9710     5.0000     0.0290     4.3274     4.3274     0.0000
  5 B      5.0312     5.0000    -0.0312     3.7570     3.7570    -0.0000
  6 B      4.9706     5.0000     0.0294     4.3372     4.3372     0.0000
  7 B      4.9722     5.0000     0.0278     4.3307     4.3307     0.0000
  8 B      5.0300     5.0000    -0.0300     3.7558     3.7558    -0.0000
  9 B      5.0261     5.0000    -0.0261     3.7906     3.7906     0.0000
 10 B      5.0317     5.0000    -0.0317     3.7583     3.7583     0.0000
 11 B      4.9695     5.0000     0.0305     4.3359     4.3359    -0.0000

  Mayer bond orders larger than 0.100000
B(  0-B ,  1-B ) :   0.2472 B(  0-B ,  2-B ) :   0.5605 B(  0-B ,  3-B ) :   0.1599 
B(  0-B ,  4-B ) :   0.1781 B(  0-B ,  5-B ) :   0.2475 B(  0-B ,  6-B ) :   0.5612 
B(  0-B ,  7-B ) :   0.8544 B(  0-B ,  8-B ) :   0.2584 B(  0-B ,  9-B ) :   0.3028 
B(  0-B , 10-B ) :   0.2591 B(  0-B , 11-B ) :   0.1594 B(  1-B ,  2-B ) :   0.8333 
B(  1-B ,  3-B ) :   0.5584 B(  1-B ,  4-B ) :   0.1607 B(  1-B ,  5-B ) :   0.2652 
B(  1-B ,  6-B ) :   0.1596 B(  1-B ,  7-B ) :   0.5380 B(  1-B ,  8-B ) :   0.2410 
B(  1-B ,  9-B ) :   0.2591 B(  1-B , 10-B ) :   0.3186 B(  1-B , 11-B ) :   0.1753 
B(  2-B ,  3-B ) :   0.1454 B(  2-B ,  4-B ) :   0.7085 B(  2-B ,  5-B ) :   0.1603 
B(  2-B ,  6-B ) :   0.7029 B(  2-B ,  7-B ) :   0.1467 B(  2-B ,  8-B ) :   0.5575 
B(  2-B ,  9-B ) :   0.1601 B(  2-B , 10-B ) :   0.1759 B(  2-B , 11-B ) :   0.1893 
B(  3-B ,  4-B ) :   0.1464 B(  3-B ,  5-B ) :   0.1760 B(  3-B ,  6-B ) :   0.1893 
B(  3-B ,  7-B ) :   0.7080 B(  3-B ,  8-B ) :   0.8320 B(  3-B ,  9-B ) :   0.5607 
B(  3-B , 10-B ) :   0.1604 B(  3-B , 11-B ) :   0.7028 B(  4-B ,  5-B ) :   0.1608 
B(  4-B ,  6-B ) :   0.7084 B(  4-B ,  7-B ) :   0.1886 B(  4-B ,  8-B ) :   0.5383 
B(  4-B ,  9-B ) :   0.8538 B(  4-B , 10-B ) :   0.5379 B(  4-B , 11-B ) :   0.1461 
B(  5-B ,  6-B ) :   0.8319 B(  5-B ,  7-B ) :   0.5374 B(  5-B ,  8-B ) :   0.3191 
B(  5-B ,  9-B ) :   0.2598 B(  5-B , 10-B ) :   0.2411 B(  5-B , 11-B ) :   0.5579 
B(  6-B ,  7-B ) :   0.1464 B(  6-B ,  8-B ) :   0.1750 B(  6-B ,  9-B ) :   0.1593 
B(  6-B , 10-B ) :   0.5584 B(  6-B , 11-B ) :   0.1448 B(  7-B ,  8-B ) :   0.1618 
B(  7-B ,  9-B ) :   0.1794 B(  7-B , 10-B ) :   0.1616 B(  7-B , 11-B ) :   0.7084 
B(  8-B ,  9-B ) :   0.2474 B(  8-B , 10-B ) :   0.2656 B(  8-B , 11-B ) :   0.1597 
B(  9-B , 10-B ) :   0.2478 B(  9-B , 11-B ) :   0.5604 B( 10-B , 11-B ) :   0.8317 


-------
TIMINGS
-------

Total SCF time: 0 days 0 hours 0 min 4 sec 

Total time                  ....       4.480 sec
Sum of individual times     ....       3.891 sec  ( 86.9%)

SCF preparation             ....       0.529 sec  ( 11.8%)
Fock matrix formation       ....       2.852 sec  ( 63.7%)
  Startup                   ....       0.020 sec  (  0.7% of F)
  Split-RI-J                ....       0.929 sec  ( 32.6% of F)
  XC integration            ....       2.193 sec  ( 76.9% of F)
    XC Preparation          ....       0.000 sec  (  0.0% of XC)
    Basis function eval.    ....       0.355 sec  ( 16.2% of XC)
    Density eval.           ....       0.291 sec  ( 13.3% of XC)
    XC-Functional eval.     ....       0.042 sec  (  1.9% of XC)
    XC-Potential eval.      ....       0.383 sec  ( 17.4% of XC)
Diagonalization             ....       0.000 sec  (  0.0%)
Density matrix formation    ....       0.027 sec  (  0.6%)
Total Energy calculation    ....       0.033 sec  (  0.7%)
Population analysis         ....       0.112 sec  (  2.5%)
Orbital Transformation      ....       0.020 sec  (  0.5%)
Orbital Orthonormalization  ....       0.000 sec  (  0.0%)
DIIS solution               ....       0.020 sec  (  0.4%)
SOSCF solution              ....       0.298 sec  (  6.6%)
Finished LeanSCF after   4.6 sec

Maximum memory used throughout the entire LEANSCF-calculation: 11.0 MB


-------------------------------------------------------------------------------
                          DFT DISPERSION CORRECTION                            
                                                                               
                              DFTD3 V3.1  Rev 1                                
                          USING Becke-Johnson damping                          
-------------------------------------------------------------------------------
The BP86 functional is recognized
Active option DFTDOPT                   ...         4   

molecular C6(AA) [au] = 4036.536166 


            DFT-D V3
 parameters
 s6 scaling factor         :     1.0000 
 a1 scaling factor         :     0.3946 
 s8 scaling factor         :     3.2822 
 a2 scaling factor         :     4.8516 
 ad hoc parameters k1-k3   :    16.0000     1.3333    -4.0000 

 Edisp/kcal,au: -23.925505654770  -0.038127716141 
 E6   /kcal   :  -6.812821572 
 E8   /kcal   : -17.112684083 
 % E8         :  71.524858574 

-------------------------   ----------------
Dispersion correction           -0.038127716
-------------------------   ----------------


-------------------------   --------------------
FINAL SINGLE POINT ENERGY      -297.635006780153
-------------------------   --------------------

                                *** OPTIMIZATION RUN DONE ***



           ************************************************************
           *        Program running with 8 parallel MPI-processes     *
           *              working on a common directory               *
           ************************************************************

------------------------------------------------------------------------------
                              ORCA PROPERTY CALCULATIONS
------------------------------------------------------------------------------

GBWName                                 ... icosahedron_nn2.50.gbw
Number of atoms                         ...     12
Number of basis functions               ...    168
Max core memory                         ...   2500 MB

Electric properties:
Dipole moment                           ... YES
Quadrupole moment                       ...  NO
Static polarizability (Dipole/Dipole)   ...  NO
Static polarizability (Dipole/Quad.)    ...  NO
Static polarizability (Quad./Quad.)     ...  NO
Static polarizability (Velocity)        ...  NO
Static hyperpolarizability              ...  NO

Atomic electric properties:
Dipole moment                           ...  NO
Quadrupole moment                       ...  NO
Static polarizability                   ...  NO

Choice of electric origin               ... Center of mass
Position of electric origin             ...     0.000000     0.000000     0.000000

General magnetic properties:
Magnetizability                         ...  NO

EPR properties:
g-Tensor (aka g-matrix)                 ...  NO
Zero-Field splitting spin-orbit         ...  NO
Zero-field splitting spin-spin          ...  NO
Hyperfine couplings                     ...  NO (   0 nuclei)
Quadrupole couplings                    ...  NO (   0 nuclei)
Contact density                         ...  NO (   0 nuclei)

NMR properties:
Chemical shifts                         ...  NO (   0 nuclei)
Spin-rotation constants                 ...  NO (   0 nuclei)
Spin-spin couplings                     ...  NO (   0 nuclei,    0 pairs)

Choice of magnetic origin               ... GIAO
Position of magnetic origin             ...     0.000000     0.000000     0.000000

Properties with geometric perturbations:
SCF Hessian                             ...  NO
IR spectrum                             ...  NO
VCD spectrum                            ...  NO
X-ray spectroscopy properties:
SCF XES/XAS/RIXS spectra                ...  NO

SCF SOC stabilization energy            ...  NO
Diagonal Born-Oppenheimer correction    ...  NO

-------------
DIPOLE MOMENT
-------------

Method             : SCF
Type of density    : Electron Density
Multiplicity       :   1
Irrep              :   0
Energy             :  -297.5968790640120005 Eh
Basis              : AO
                                X                 Y                 Z
Electronic contribution:     -0.001246266      -0.000855830       0.000578979
Nuclear contribution   :      0.000000000       0.000000000       0.000000000
                        -----------------------------------------
Total Dipole Moment    :     -0.001246266      -0.000855830       0.000578979
                        -----------------------------------------
Magnitude (a.u.)       :      0.001618901
Magnitude (Debye)      :      0.004114919



--------------------
Rotational spectrum 
--------------------
 
Rotational constants in cm-1:             0.074564             0.074413             0.070819 
Rotational constants in MHz :          2235.376856          2230.856183          2123.102419 

Dipole components along the rotational axes: 
x,y,z [a.u.] :    -0.001615    -0.000019     0.000109 
x,y,z [Debye]:    -0.004105    -0.000048     0.000277 

 

Dipole moment calculation done in   0.1 sec 

Maximum memory used throughout the entire PROP-calculation: 8.7 MB

--------------------------------
SUGGESTED CITATIONS FOR THIS RUN
--------------------------------

Below you find a list of papers that are relevant to this ORCA run
We neither can nor want to force you to cite these papers, but we appreciate if you do
You receive ORCA, which is the product of decades of hard work by many enthusiastic individuals, for free
The only thing we kindly ask in return is that you cite our papers,
We deeply appreciate it, if you show your appreciation for ORCA by not just citing the generic ORCA reference.

Please note that relegating all ORCA citations to the supporting information does *not* help us.
SI sections are not indexed - citations you put there will not count into any citation statistics
But we need these citations in order to attract the funding resources that allow us to do what we are doing

Therefore, if you are a happy ORCA user, please consider citing a few of the papers listed below in the main body of your paper

In addition to the list printed below, the program has created the file icosahedron_nn2.50.bibtex that contains the list in bibtex format
You can import this file easily into all common literature databanks and citation aid programs

It goes without saying that in many instances, there are alternative algorithms to achieve similar
results as the ones you have gotten from ORCA. It is, of course, also the case that in some instances
ORCA just re-implements algorithms worked out by others. We are fully aware of that and we are also
fully appreciative of our colleagues work. Hence this citation list should not be read as indicating
that the listed papers, which are focused on our own work, are the only ones worth citing. It simply
meant to make it easier for users to cite ORCA specific papers. It is not a substitute for doing your
own literature research and citing the relevant literature in a scientifically appropriate manner.

List of essential papers. We consider these as the minimum necessary citations

  1. Neese, F.
     Software update: the ORCA program system, version 6.0
     WIRES Comput. Molec. Sci. 2025 15(1), e70019
     doi.org/10.1002/wcms.70019

List of papers to cite with high priority. The work reported in these papers was absolutely
necessary for this run to complete.
Our perspective: the developers of density functionals and basis sets usually get cited in chemistry papers
Good! But without the algorithms to do something with them, the functionals or basis sets would not do anything.
Hence, in our opinion, the algorithm design and method developments papers are equally worthy of getting cited

  1. Neese, F.
     An improvement of the resolution of the identity approximation for the formation of the Coulomb matrix
     J. Comp. Chem. 2003 24(14), 1740-1747
     doi.org/10.1002/jcc.10318
  2. Grimme, S.; Antony, J.; Ehrlich, S.; Krieg, H.
     A consistent and accurate ab initio parametrization of density functional dispersion correction (DFT-D) for the 94 elements H-Pu
     J. Chem. Phys. 2010 132 , 154104
     doi.org/10.1063/1.3382344
  3. Grimme, S.; Ehrlich, S.; Goerigk, L.
     Effect of the damping function in dispersion corrected density functional theory
     J. Comput. Chem. 2011 32(7), 1456-1465
     doi.org/10.1002/jcc.21759
  4. Neese, F.
     The SHARK Integral Generation and Digestion System
     J. Comp. Chem. 2022 44(3), 381
     doi.org/10.1002/jcc.26942

List of suggested additional citations. These are papers that are important in the 'surrounding' of 
of this run, or papers that preceded the highly important papers. If you like your results we are grateful for a citation.

  1. Neese, F.
     The ORCA program system
     WIRES Comput. Molec. Sci. 2012 2(1), 73-78
     doi.org/10.1002/wcms.81
  2. Neese, F.
     Software update: the ORCA program system, version 4.0
     WIRES Comput. Molec. Sci. 2018 8(1), 1-6
     doi.org/10.1002/wcms.1327
  3. Neese, F.; Wennmohs, F.; Becker, U.; Riplinger, C.
     The ORCA quantum chemistry program package
     J. Chem. Phys. 2020 152(22), 224108
     doi.org/10.1063/5.0004608
  4. Neese, F.
     Software update: The ORCA program system—Version 5.0
     WIRES Comput. Molec. Sci. 2022 12(1), e1606
     doi.org/10.1002/wcms.1606

List of optional additional citations

  1. Neese, F.
     Approximate second-order SCF convergence for spin unrestricted wavefunctions
     Chem. Phys. Lett. 2000 325(1-3), 93-98
     doi.org/10.1016/s0009-2614(00)00662-x

Timings for individual modules:

Sum of individual times          ...      306.644 sec (=   5.111 min)
Startup calculation              ...       33.239 sec (=   0.554 min)  10.8 %
SCF iterations                   ...      222.911 sec (=   3.715 min)  72.7 %
Property calculations            ...        1.413 sec (=   0.024 min)   0.5 %
SCF Gradient evaluation          ...       47.951 sec (=   0.799 min)  15.6 %
Geometry relaxation              ...        1.130 sec (=   0.019 min)   0.4 %
                             ****ORCA TERMINATED NORMALLY****
TOTAL RUN TIME: 0 days 0 hours 5 minutes 21 seconds 785 msec
