
                                 *****************
                                 * O   R   C   A *
                                 *****************

                                            #,                                       
                                            ###                                      
                                            ####                                     
                                            #####                                    
                                            ######                                   
                                           ########,                                 
                                     ,,################,,,,,                         
                               ,,#################################,,                 
                          ,,##########################################,,             
                       ,#########################################, ''#####,          
                    ,#############################################,,   '####,        
                  ,##################################################,,,,####,       
                ,###########''''           ''''###############################       
              ,#####''   ,,,,##########,,,,          '''####'''          '####       
            ,##' ,,,,###########################,,,                        '##       
           ' ,,###''''                  '''############,,,                           
         ,,##''                                '''############,,,,        ,,,,,,###''
      ,#''                                            '''#######################'''  
     '                                                          ''''####''''         
             ,#######,   #######,   ,#######,      ##                                
            ,#'     '#,  ##    ##  ,#'     '#,    #''#        ,####,    ,#,          
            ##       ##  ##   ,#'  ##            #'  '#       #'       ,# #          
            ##       ##  #######   ##           ,######,      #####,      #          
            '#,     ,#'  ##    ##  '#,     ,#' ,#      #,     #,   #      #          
             '#######'   ##     ##  '#######'  #'      '#     '####' #    #          



                #########################################################
                #                        -***-                          #
                #          Department of theory and spectroscopy        #
                #                                                       #
                #                      Frank Neese                      #
                #                                                       #
                #     Directorship, Architecture, Infrastructure        #
                #                    SHARK, DRIVERS                     #
                #        Core code/Algorithms in most modules           #
                #                                                       #
                #        Max Planck Institute fuer Kohlenforschung      #
                #                Kaiser Wilhelm Platz 1                 #
                #                 D-45470 Muelheim/Ruhr                 #
                #                      Germany                          #
                #                                                       #
                #                  All rights reserved                  #
                #                        -***-                          #
                #########################################################


                         Program Version 6.1.1  -  RELEASE   -
                                (GIT: $487d211c$)
                          ($2025-11-21 10:33:24 +0100$)
                                                                         
                                  - NO-DMRG VERSION -                    
                                                                         


 With contributions from (in alphabetic order):
[Max-Planck-Institut fuer Kohlenforschung]                               
  Daniel Aravena         : Magnetic Suceptibility                        
  Michael Atanasov       : Ab Initio Ligand Field Theory (pilot matlab implementation)
  Alexander A. Auer      : GIAO ZORA, VPT2 properties, NMR spectrum      
  Ute Becker             : All parallelization in ORCA, NUMFREQ, NUMCALC 
  Giovanni Bistoni       : ED, misc. LED, open-shell LED, HFLD           
  Dmytro Bykov           : pre 5.0 version of the SCF Hessian            
  Marcos Casanova-Páez   : Triplet and SCS-CIS(D). UHF-(DLPNO)-IP/EA/STEOM-CCSD. UHF-CVS-IP/STEOM-CCSD   
  Vijay G. Chilkuri      : MRCI spin determinant printing, contributions to CSF-ICE 
  Pauline Colinet        : FMM embedding                                 
  Dipayan Datta          : RHF DLPNO-CCSD density                        
  Achintya Kumar Dutta   : EOM-CC, STEOM-CC                              
  Nicolas Foglia         : Exact transition moments, OPA infrastructure, MCD improvements    
  Dmitry Ganyushin       : Spin-Orbit,Spin-Spin,Magnetic field MRCI      
  Miquel Garcia-Rates    : C-PCM and meta-GGA Hessian, CCSD/C-PCM, Gaussian charge scheme 
  Tiago L. C. Gouveia    : GS-ROHF, GS-ROCIS                             
  Yang Guo               : DLPNO-NEVPT2, F12-NEVPT2, CIM, IAO-localization        
  Andreas Hansen         : Spin unrestricted coupled pair/coupled cluster methods 
  Ingolf Harden          : AUTO-CI MPn and infrastructure                
  Benjamin Helmich-Paris : MC-RPA, TRAH-(SCF,CASSCF), AVAS, COSX integrals, SCF dyn. polar., MC-PDFT, srDFT 
  Lee Huntington         : MR-EOM, pCC                                   
  Robert Izsak           : Overlap fitted RIJCOSX, COSX-SCS-MP3, EOM     
  Riya Kayal             : Wick's Theorem for AUTO-CI, AUTO-CI UHF-CCSDT 
  Emily Kempfer          : AUTO-CI RHF CISDT and CCSDT, approximate NEVPT4
  Christian Kollmar      : KDIIS, OOCD, Brueckner-CCSD(T), CCSD density, CASPT2, CASPT2-K, improved NEVPT2 
  Axel Koslowski         : Symmetry handling                             
  Simone Kossmann        : meta-GGA functionals, TD-DFT gradient, OOMP2, (MP2 Hessian; deprecated post 5.0) 
  Lucas Lang             : DCDCAS, Hyperfine gauge corrections, ICE-SOC+SSC
  Marvin Lechner         : AUTO-CI (C++ implementation), FIC-MRCC        
  Spencer Leger          : CASSCF response                               
  Dagmar Lenk            : GEPOL surface, SMD, ORCA-2-JSON               
  Dimitrios Liakos       : Extrapolation schemes; Compound Job, Property file
  Dimitrios Manganas     : Further ROCIS development; embedding schemes. LFT, Crystal Embedding 
  Dimitrios Pantazis     : SARC Basis sets                               
  Anastasios Papadopoulos: AUTO-CI, single reference methods and gradients 
  Taras Petrenko         : pre 6.0 DFT Hessian and TD-DFT gradient,  ECA, NRVS 
  Petra Pikulova         : Analytic Raman intensities                    
  Peter Pinski           : DLPNO-MP2, DLPNO-MP2 Gradient                 
  Shashank Vittal Rao    : ES-AILFT, MagRelax                            
  Christoph Reimann      : Effective Core Potentials                     
  Marius Retegan         : Local ZFS, SOC                                
  Christoph Riplinger    : Optimizer, TS searches, QM/MM, DLPNO-CCSD(T), (RO)-DLPNO pert. Triples 
  Michael Roemelt        : Original ROCIS implementation, recursive CI coupling coefficients
  Masaaki Saitow         : Open-shell DLPNO-CCSD energy and density      
  Barbara Sandhoefer     : DKH picture change effects                    
  Yorick L. A. Schmerwitz: GMF and freeze-and-release deltaSCF, NEB S-IDPP initial path                    
  Kantharuban Sivalingam : CASSCF convergence/infrastructure, NEVPT2, NEVPT3, NEVPT4(SD), FIC-MRCI and CEPA variants
  Bernardo de Souza      : ESD, SOC TD-DFT                               
  Georgi L. Stoychev     : AutoAux, RI-MP2 NMR, DLPNO-MP2 response, X2C  
  Van Anh Tran           : RI-MP2 g-tensors                              
  Willem Van den Heuvel  : Paramagnetic NMR                              
  Zikuan Wang            : NOTCH, Electric field optimization            
  Frank Wennmohs         : Technical directorship and infrastructure     
  Hang Xu                : AUTO-CI-Response properties                   
                                                                         
[FACCTs GmbH]                                                            
  Markus Bursch, Nicolas Foglia, Miquel Garcia-Rates, Ingolf Harden, Hagen Neugebauer, Anastasios Papadopoulos, 
  Christoph Riplinger, Bernardo de Souza, Georgi L. Stoychev                                                    
                                                                 
  APM, various basis sets, CI-OPT, improved COSX, DLPNO-Multilevel,           
  DOCKER, DRACO, updates on ESD, Fragmentator, GOAT, IRC, LR-CPCM, L-BFGS, MBIS, meta-GGA TD-DFT gradient, ML-optimized integration grids, 
  MM, NACMEs, nearIR, NEB, NEB-TS, NL-DFT gradient (VV10), 2- and 3-layer-ONIOM, interface openCOSMO-RS, QMMM,   
  Crystal-QMMM, RESP, rigid body optimization, SF, symmetry and pop. for TD-DFT, various functionals, SOLVATOR                                   
                                                                         
[Other institutions]                                                     
  V. Asgeirsson          : NEB                                           
  Christoph Bannwarth    : sTDA-DFT, sTD-DFT, PBEh-3c, B97-3c, D3        
  Giovanni Bistoni       : ETS/NOCV, ADLD/ADEX, COVALED                  
  Martin Brehm           : Molecular dynamics                            
  Ronald Cardenas        : ETS/NOCV                                      
  Martina Colucci        : COVALED                                       
  Sebastian Ehlert       : rSCAN, r2SCAN, r2SCAN-3c, D4, dhf basis sets  
  Marvin Friede          : D4 for Fr, Ra, Ac-Lr                          
  Lars Goerigk           : TD-DFT with DH, B97 family of functionals     
  Stefan Grimme          : VdW corrections, initial TS optimization, DFT functionals, gCP, sTDA/sTD-DF 
  Waldemar Hujo          : DFT-NL                                        
  H. Jonsson             : NEB                                           
  Holger Kruse           : gCP                                           
  Marcel Mueller         : wB97X-3c, vDZP basis set                      
  Hagen Neugebauer       : wr2SCAN, Native XTB                           
  Gianluca Regni         : ADLD/ADEX                                     
  Tobias Risthaus        : pre 6.0 range-separated hybrid DFT and stability analysis
  Lukas Wittmann         : regularized MP2, r2SCAN double-hybrids, wr2SCAN        
                                                                         
We gratefully acknowledge several colleagues who have allowed us to      
interface, adapt or use parts of their codes:                            
  Ed Valeev, F. Pavosevic, A. Kumar             : LibInt (2-el integral package), F12 methods 
  Garnet Chan, S. Sharma, J. Yang, R. Olivares  : DMRG                   
  Ulf Ekstrom                                   : XCFun DFT Library      
  Mihaly Kallay                                 : mrcc  (arbitrary order and MRCC methods)
  Frank Weinhold                                : gennbo (NPA and NBO analysis)           
  Simon Mueller                                 : openCOSMO-RS                            
  Christopher J. Cramer and Donald G. Truhlar   : smd solvation model                     
  S Lehtola, MJT Oliveira, MAL Marques          : LibXC Library                           
  Liviu Ungur et al                             : ANISO software                          


 Your calculation uses the libint2 library for the computation of 2-el integrals
 For citations please refer to: http://libint.valeyev.net

 Your ORCA version has been built with support for libXC version: 7.0.0
 For citations please refer to: https://libxc.gitlab.io

 This ORCA versions uses:
   CBLAS   interface :  Fast vector & matrix operations
   LAPACKE interface :  Fast linear algebra routines
   SCALAPACK package :  Parallel linear algebra routines
   Shared memory     :  Shared parallel matrices
   BLAS/LAPACK       :  OpenBLAS 0.3.29  USE64BITINT DYNAMIC_ARCH NO_AFFINITY Zen SINGLE_THREADED
        Core in use  :  Zen
   Copyright (c) 2011-2014, The OpenBLAS Project


  ***********************************
  * Starting time: Fri Apr 24 10:04:25 2026
  * Host name:     vmi3233575
  * Process ID:    1813251
  * Working dir.:  /root/b12_scan/jobs_refined/rank04_quasi_planar_nn3.00
  ***********************************

NOTE: MaxCore=2500 MB was set to SCF,MP2,MDCI,CIPSI,MRCI,RASCI and CIS
      => If you want to overwrite this, your respective input block should be placed after the MaxCore statement
Your calculation utilizes the atom-pairwise dispersion correction
with the Becke-Johnson damping scheme (D3BJ)


================================================================================

----- Orbital basis set information -----
Your calculation utilizes the basis: def2-TZVP
   F. Weigend and R. Ahlrichs, Phys. Chem. Chem. Phys. 7, 3297 (2005).

----- AuxJ basis set information -----
Your calculation utilizes the auxiliary basis: def2/J
   H-Rn: F. Weigend, Phys. Chem. Chem. Phys. 8, 1057 (2006).
   Fr-Lr: K. Eichkorn, F. Weigend, O. Treutler, R. Ahlrichs; Theor. Chem. Acc. 97, 119 (1997).

================================================================================
                                        WARNINGS
                       Please study these warnings very carefully!
================================================================================


WARNING: Geometry Optimization
  ===> : Switching off AutoStart
         For restart on a previous wavefunction, please use MOREAD

================================================================================
                                       INPUT FILE
================================================================================
NAME = rank04_quasi_planar_nn3.00.inp
|  1> ! B3LYP def2-TZVP def2/J RIJCOSX Opt TightSCF D3BJ Freq
|  2> 
|  3> %pal nprocs 8 end
|  4> %maxcore 2500
|  5> 
|  6> %geom
|  7>   MaxIter 500
|  8> end
|  9> 
| 10> * xyz 0 1
| 11>   B           0.95043205163477     -0.23961216221962     -0.38175147208674
| 12>   B          -0.26755293359700      0.94466949210521     -0.37744574864553
| 13>   B          -0.68397158416732     -0.70213830815194     -0.38067384776709
| 14>   B           2.45450351872012      0.19570565079991      0.16750213980904
| 15>   B           1.42606785388697      1.46657876594357      0.04185892840722
| 16>   B           0.12716751798571      2.45856367465277      0.17532306234255
| 17>   B          -1.39668566292529      2.02694573802443      0.17687692872157
| 18>   B          -1.98255194454059      0.50117203949931      0.04463150398933
| 19>   B          -2.19303792357857     -1.12027194198343      0.16820250438749
| 20>   B          -1.05747553642247     -2.22423663302074      0.16467420964074
| 21>   B           0.55693222662566     -1.96763466368546      0.03618933200626
| 22>   B           2.06617242637801     -1.33974167196401      0.16461248919516
| 23> *
| 24> 
| 25>                          ****END OF INPUT****
================================================================================

                       *****************************
                       * Geometry Optimization Run *
                       *****************************

Geometry optimization settings:
Update method            Update   .... BFGS
Choice of coordinates    CoordSys .... (2022) Redundant Internals
Initial Hessian          InHess   .... Almloef's Model
Max. no of cycles        MaxIter  .... 500

Convergence Tolerances:
Energy Change            TolE     ....  5.0000e-06 Eh
Max. Gradient            TolMAXG  ....  3.0000e-04 Eh/bohr
RMS Gradient             TolRMSG  ....  1.0000e-04 Eh/bohr
Max. Displacement        TolMAXD  ....  4.0000e-03 bohr
RMS Displacement         TolRMSD  ....  2.0000e-03 bohr
Strict Convergence                .... False

------------------------------------------------------------------------------
                        ORCA OPTIMIZATION COORDINATE SETUP
------------------------------------------------------------------------------

The optimization will be done in redundant internal coordinates (2022)
Making redundant internal coordinates   ...  (2022 redundants) done
Evaluating the initial hessian          ...  (Almloef) done
Evaluating the coordinates              ...  done
Calculating the B-matrix                .... done
Calculating the G-matrix                .... done
The number of degrees of freedom        ....  264

    -----------------------------------------------------------------
                    Redundant Internal Coordinates


    -----------------------------------------------------------------
         Definition                    Initial Value    Approx d2E/dq
    -----------------------------------------------------------------
      1. B(B   1,B   0)                  1.6988         0.269558   
      2. B(B   2,B   1)                  1.6986         0.269744   
      3. B(B   2,B   0)                  1.6986         0.269798   
      4. B(B   3,B   0)                  1.6593         0.311643   
      5. B(B   4,B   1)                  1.8211         0.171994   
      6. B(B   4,B   0)                  1.8212         0.171959   
      7. B(B   4,B   3)                  1.6397         0.334972   
      8. B(B   5,B   4)                  1.6398         0.334820   
      9. B(B   5,B   1)                  1.6593         0.311705   
     10. B(B   6,B   5)                  1.5838         0.411317   
     11. B(B   6,B   1)                  1.6594         0.311600   
     12. B(B   7,B   6)                  1.6397         0.334924   
     13. B(B   7,B   2)                  1.8208         0.172238   
     14. B(B   7,B   1)                  1.8210         0.172081   
     15. B(B   8,B   2)                  1.6593         0.311653   
     16. B(B   8,B   7)                  1.6397         0.334946   
     17. B(B   9,B   8)                  1.5837         0.411399   
     18. B(B   9,B   2)                  1.6594         0.311546   
     19. B(B  10,B   9)                  1.6397         0.334942   
     20. B(B  10,B   2)                  1.8207         0.172248   
     21. B(B  10,B   0)                  1.8209         0.172164   
     22. B(B  11,B  10)                  1.6397         0.334986   
     23. B(B  11,B   3)                  1.5838         0.411325   
     24. B(B  11,B   0)                  1.6594         0.311552   
     25. A(B   3,B   0,B   4)           55.9789         0.319515   
     26. A(B   2,B   0,B  11)          117.7897         0.344239   
     27. A(B   3,B   0,B  10)          111.6462         0.319578   
     28. A(B   1,B   0,B  11)          160.6275         0.344187   
     29. A(B   4,B   0,B  11)          111.6485         0.319500   
     30. A(B   3,B   0,B  11)           57.0086         0.352706   
     31. A(B   4,B   0,B  10)          153.1421         0.290544   
     32. A(B   1,B   0,B   2)           59.9974         0.336010   
     33. A(B  10,B   0,B  11)           55.9840         0.319563   
     34. A(B   1,B   0,B   4)           62.1967         0.312069   
     35. A(B   2,B   0,B   3)          160.6309         0.344255   
     36. A(B   1,B   0,B   3)          117.7843         0.344204   
     37. A(B   2,B   0,B   4)          120.4147         0.312114   
     38. A(B   2,B   0,B  10)           62.1927         0.312174   
     39. A(B   1,B   0,B  10)          120.4010         0.312130   
     40. A(B   0,B   1,B   7)          120.3995         0.312105   
     41. A(B   6,B   1,B   7)           55.9838         0.319545   
     42. A(B   2,B   1,B   6)          117.7839         0.344236   
     43. A(B   5,B   1,B   6)           57.0106         0.352727   
     44. A(B   5,B   1,B   7)          111.6556         0.319563   
     45. A(B   0,B   1,B   6)          160.6260         0.344196   
     46. A(B   2,B   1,B   7)           62.1894         0.312140   
     47. A(B   2,B   1,B   4)          120.4149         0.312115   
     48. A(B   0,B   1,B   5)          117.7959         0.344215   
     49. A(B   4,B   1,B   7)          153.1600         0.290531   
     50. A(B   4,B   1,B   5)           55.9855         0.319537   
     51. A(B   0,B   1,B   2)           59.9942         0.335999   
     52. A(B   0,B   1,B   4)           62.2000         0.312080   
     53. A(B   4,B   1,B   6)          111.6527         0.319519   
     54. A(B   2,B   1,B   5)          160.6452         0.344255   
     55. A(B   8,B   2,B  10)          111.6504         0.319605   
     56. A(B   7,B   2,B  10)          153.1185         0.290640   
     57. A(B   1,B   2,B  10)          120.4192         0.312189   
     58. A(B   0,B   2,B  10)           62.2006         0.312199   
     59. A(B   8,B   2,B   9)           57.0068         0.352706   
     60. A(B   0,B   2,B   1)           60.0084         0.336049   
     61. A(B   7,B   2,B   9)          111.6477         0.319584   
     62. A(B   1,B   2,B   9)          160.7010         0.344226   
     63. A(B   0,B   2,B   9)          117.8105         0.344237   
     64. A(B   7,B   2,B   8)           55.9889         0.319602   
     65. A(B   1,B   2,B   8)          117.8150         0.344246   
     66. A(B   0,B   2,B   8)          160.7177         0.344257   
     67. A(B   9,B   2,B  10)           55.9880         0.319587   
     68. A(B   1,B   2,B   7)           62.2043         0.312186   
     69. A(B   0,B   2,B   7)          120.4275         0.312196   
     70. A(B   0,B   3,B   4)           67.0111         0.357067   
     71. A(B   0,B   3,B  11)           61.4982         0.369820   
     72. A(B   4,B   3,B  11)          126.6898         0.374446   
     73. A(B   1,B   4,B   3)          112.2603         0.323324   
     74. A(B   0,B   4,B   3)           57.0099         0.323313   
     75. A(B   0,B   4,B   1)           55.6033         0.290499   
     76. A(B   3,B   4,B   5)          163.6274         0.361455   
     77. A(B   1,B   4,B   5)           57.0073         0.323300   
     78. A(B   0,B   4,B   5)          112.2592         0.323289   
     79. A(B   4,B   5,B   6)          126.6798         0.374415   
     80. A(B   1,B   5,B   6)           61.4976         0.369831   
     81. A(B   1,B   5,B   4)           67.0072         0.357052   
     82. A(B   1,B   6,B   5)           61.4918         0.369810   
     83. A(B   5,B   6,B   7)          126.6748         0.374435   
     84. A(B   1,B   6,B   7)           67.0013         0.357050   
     85. A(B   6,B   7,B   8)          163.7242         0.361469   
     86. A(B   2,B   7,B   8)           57.0187         0.323395   
     87. A(B   1,B   7,B   8)          112.2838         0.323346   
     88. A(B   2,B   7,B   6)          112.2698         0.323391   
     89. A(B   1,B   7,B   6)           57.0149         0.323343   
     90. A(B   1,B   7,B   2)           55.6062         0.290596   
     91. A(B   7,B   8,B   9)          126.6614         0.374452   
     92. A(B   2,B   8,B   9)           61.4996         0.369833   
     93. A(B   2,B   8,B   7)           66.9924         0.357064   
     94. A(B   2,B   9,B   8)           61.4936         0.369812   
     95. A(B   8,B   9,B  10)          126.6578         0.374452   
     96. A(B   2,B   9,B  10)           66.9896         0.357043   
     97. A(B   9,B  10,B  11)          163.7462         0.361480   
     98. A(B   2,B  10,B  11)          112.2776         0.323404   
     99. A(B   0,B  10,B  11)           57.0200         0.323378   
    100. A(B   2,B  10,B   9)           57.0225         0.323397   
    101. A(B   0,B  10,B   9)          112.2883         0.323371   
    102. A(B   0,B  10,B   2)           55.6067         0.290621   
    103. A(B   3,B  11,B  10)          126.6607         0.374448   
    104. A(B   0,B  11,B  10)           66.9960         0.357052   
    105. A(B   0,B  11,B   3)           61.4932         0.369801   
    106. D(B   4,B   1,B   0,B  11)     75.9728         0.010000   
    107. D(B   4,B   1,B   0,B  10)    149.3119         0.010000   
    108. D(B   4,B   1,B   0,B   3)      6.8876         0.010000   
    109. D(B   2,B   1,B   0,B  10)    -15.5637         0.010000   
    110. D(B   2,B   1,B   0,B   3)   -157.9880         0.010000   
    111. D(B   5,B   1,B   0,B   2)    158.0018         0.010000   
    112. D(B   4,B   1,B   0,B   2)    164.8756         0.010000   
    113. D(B   2,B   1,B   0,B   4)   -164.8756         0.010000   
    114. D(B   5,B   1,B   0,B   3)      0.0139         0.010000   
    115. D(B   2,B   1,B   0,B  11)    -88.9027         0.010000   
    116. D(B   7,B   2,B   0,B   1)    -15.5488         0.010000   
    117. D(B   0,B   2,B   1,B   7)   -164.8535         0.010000   
    118. D(B   7,B   2,B   1,B   6)      6.8710         0.010000   
    119. D(B   8,B   2,B   1,B   0)    158.0807         0.010000   
    120. D(B   0,B   2,B   1,B   6)   -157.9825         0.010000   
    121. D(B   8,B   2,B   1,B   4)    142.5573         0.010000   
    122. D(B   0,B   2,B   1,B   5)    -88.9016         0.010000   
    123. D(B   7,B   2,B   1,B   0)    164.8535         0.010000   
    124. D(B   0,B   2,B   1,B   4)    -15.5234         0.010000   
    125. D(B   1,B   2,B   0,B   4)     15.5229         0.010000   
    126. D(B   1,B   2,B   0,B  11)    157.9829         0.010000   
    127. D(B   1,B   2,B   0,B  10)    164.8331         0.010000   
    128. D(B   1,B   2,B   0,B   3)     88.8840         0.010000   
    129. D(B   7,B   2,B   0,B  10)    149.2843         0.010000   
    130. D(B   7,B   2,B   0,B  11)    142.4340         0.010000   
    131. D(B   7,B   2,B   1,B   5)     75.9519         0.010000   
    132. D(B   7,B   2,B   0,B   3)     73.3352         0.010000   
    133. D(B   7,B   2,B   0,B   4)     -0.0259         0.010000   
    134. D(B   8,B   2,B   0,B   1)    -88.9555         0.010000   
    135. D(B   7,B   2,B   1,B   4)    149.3301         0.010000   
    136. D(B   4,B   3,B   0,B   1)     -7.3531         0.010000   
    137. D(B  11,B   3,B   0,B   4)    165.6733         0.010000   
    138. D(B  11,B   3,B   0,B   2)     80.1752         0.010000   
    139. D(B  11,B   3,B   0,B   1)    158.3201         0.010000   
    140. D(B   4,B   3,B   0,B  10)   -152.8905         0.010000   
    141. D(B   4,B   3,B   0,B  11)   -165.6733         0.010000   
    142. D(B   4,B   3,B   0,B   2)    -85.4981         0.010000   
    143. D(B   5,B   4,B   3,B  11)     36.8611         0.010000   
    144. D(B   5,B   4,B   3,B   0)     52.5960         0.010000   
    145. D(B   1,B   4,B   3,B  11)     -9.1815         0.010000   
    146. D(B   0,B   4,B   3,B  11)    -15.7349         0.010000   
    147. D(B   3,B   4,B   1,B   6)    153.0758         0.010000   
    148. D(B   3,B   4,B   1,B   5)    165.9996         0.010000   
    149. D(B   3,B   4,B   1,B   2)      8.5268         0.010000   
    150. D(B   3,B   4,B   0,B   2)    157.4561         0.010000   
    151. D(B   0,B   4,B   1,B   7)    103.0060         0.010000   
    152. D(B   0,B   4,B   1,B   6)    159.7380         0.010000   
    153. D(B   0,B   4,B   1,B   2)     15.1890         0.010000   
    154. D(B   3,B   4,B   0,B  11)     12.9030         0.010000   
    155. D(B   3,B   4,B   0,B  10)     69.6412         0.010000   
    156. D(B   0,B   4,B   1,B   5)    172.6618         0.010000   
    157. D(B   3,B   4,B   1,B   0)     -6.6621         0.010000   
    158. D(B   1,B   4,B   3,B   0)      6.5535         0.010000   
    159. D(B   3,B   4,B   0,B   1)    172.6456         0.010000   
    160. D(B   1,B   4,B   0,B  11)   -159.7426         0.010000   
    161. D(B   1,B   4,B   0,B  10)   -103.0044         0.010000   
    162. D(B   1,B   4,B   0,B   2)    -15.1894         0.010000   
    163. D(B   1,B   4,B   0,B   3)   -172.6456         0.010000   
    164. D(B   6,B   5,B   1,B   0)   -158.3129         0.010000   
    165. D(B   4,B   5,B   1,B   7)    152.9038         0.010000   
    166. D(B   4,B   5,B   1,B   2)     85.5049         0.010000   
    167. D(B   4,B   5,B   1,B   0)      7.3380         0.010000   
    168. D(B   4,B   5,B   1,B   6)    165.6508         0.010000   
    169. D(B   6,B   5,B   4,B   1)     15.7575         0.010000   
    170. D(B   6,B   5,B   4,B   0)      9.2185         0.010000   
    171. D(B   1,B   5,B   4,B   3)    -52.5887         0.010000   
    172. D(B   1,B   5,B   4,B   0)     -6.5390         0.010000   
    173. D(B   6,B   5,B   4,B   3)    -36.8311         0.010000   
    174. D(B   6,B   5,B   1,B   4)   -165.6508         0.010000   
    175. D(B   6,B   5,B   1,B   2)    -80.1459         0.010000   
    176. D(B   7,B   6,B   5,B   4)     -0.0307         0.010000   
    177. D(B   7,B   6,B   1,B   0)    -85.4690         0.010000   
    178. D(B   7,B   6,B   1,B   4)   -152.9066         0.010000   
    179. D(B   7,B   6,B   1,B   2)     -7.3344         0.010000   
    180. D(B   7,B   6,B   5,B   1)     16.4965         0.010000   
    181. D(B   5,B   6,B   1,B   7)    165.6757         0.010000   
    182. D(B   5,B   6,B   1,B   4)     12.7691         0.010000   
    183. D(B   5,B   6,B   1,B   2)    158.3413         0.010000   
    184. D(B   1,B   6,B   5,B   4)    -16.5272         0.010000   
    185. D(B   5,B   6,B   1,B   0)     80.2067         0.010000   
    186. D(B   8,B   7,B   6,B   5)     36.6806         0.010000   
    187. D(B   8,B   7,B   6,B   1)     52.4088         0.010000   
    188. D(B   2,B   7,B   6,B   5)     -9.1902         0.010000   
    189. D(B   2,B   7,B   6,B   1)      6.5380         0.010000   
    190. D(B   1,B   7,B   6,B   5)    -15.7281         0.010000   
    191. D(B   6,B   7,B   2,B   9)    153.1799         0.010000   
    192. D(B   6,B   7,B   2,B   1)     -6.6465         0.010000   
    193. D(B   6,B   7,B   2,B   0)      8.5689         0.010000   
    194. D(B   1,B   7,B   2,B  10)    103.0612         0.010000   
    195. D(B   1,B   7,B   2,B   9)    159.8264         0.010000   
    196. D(B   1,B   7,B   2,B   8)    172.7712         0.010000   
    197. D(B   1,B   7,B   2,B   0)     15.2154         0.010000   
    198. D(B   6,B   7,B   1,B   5)     12.9018         0.010000   
    199. D(B   6,B   7,B   2,B   8)    166.1247         0.010000   
    200. D(B   6,B   7,B   1,B   4)     69.6439         0.010000   
    201. D(B   6,B   7,B   1,B   2)    172.6637         0.010000   
    202. D(B   6,B   7,B   1,B   0)    157.4551         0.010000   
    203. D(B   2,B   7,B   1,B   6)   -172.6637         0.010000   
    204. D(B   2,B   7,B   1,B   5)   -159.7620         0.010000   
    205. D(B   2,B   7,B   1,B   4)   -103.0198         0.010000   
    206. D(B   2,B   7,B   1,B   0)    -15.2087         0.010000   
    207. D(B   9,B   8,B   7,B   6)    -36.5767         0.010000   
    208. D(B   9,B   8,B   7,B   2)     15.7810         0.010000   
    209. D(B   2,B   8,B   7,B   6)    -52.3577         0.010000   
    210. D(B   2,B   8,B   7,B   1)     -6.4430         0.010000   
    211. D(B   9,B   8,B   2,B   7)   -165.6263         0.010000   
    212. D(B   9,B   8,B   2,B   1)   -158.3962         0.010000   
    213. D(B   9,B   8,B   2,B   0)    -80.1368         0.010000   
    214. D(B   7,B   8,B   2,B  10)    152.8527         0.010000   
    215. D(B   9,B   8,B   7,B   1)      9.3381         0.010000   
    216. D(B   7,B   8,B   2,B   9)    165.6263         0.010000   
    217. D(B   7,B   8,B   2,B   1)      7.2301         0.010000   
    218. D(B   7,B   8,B   2,B   0)     85.4894         0.010000   
    219. D(B  10,B   9,B   8,B   2)     16.5259         0.010000   
    220. D(B   2,B   9,B   8,B   7)    -16.5498         0.010000   
    221. D(B  10,B   9,B   2,B   7)   -152.8550         0.010000   
    222. D(B  10,B   9,B   2,B   1)    -85.4752         0.010000   
    223. D(B  10,B   9,B   2,B   0)     -7.2276         0.010000   
    224. D(B   8,B   9,B   2,B  10)    165.6459         0.010000   
    225. D(B   8,B   9,B   2,B   7)     12.7909         0.010000   
    226. D(B   8,B   9,B   2,B   1)     80.1706         0.010000   
    227. D(B  10,B   9,B   8,B   7)     -0.0239         0.010000   
    228. D(B   8,B   9,B   2,B   0)    158.4182         0.010000   
    229. D(B   2,B  10,B   0,B  11)    172.6863         0.010000   
    230. D(B   2,B  10,B   0,B   4)    103.0271         0.010000   
    231. D(B   2,B  10,B   0,B   3)    159.7486         0.010000   
    232. D(B   2,B  10,B   0,B   1)     15.2299         0.010000   
    233. D(B  11,B  10,B   9,B   8)     36.5806         0.010000   
    234. D(B   2,B  10,B   9,B   8)    -15.7578         0.010000   
    235. D(B   0,B  10,B   9,B   8)     -9.3163         0.010000   
    236. D(B   0,B  10,B   9,B   2)      6.4415         0.010000   
    237. D(B   9,B  10,B   2,B   7)     69.7006         0.010000   
    238. D(B   9,B  10,B   2,B   1)    157.5386         0.010000   
    239. D(B   9,B  10,B   2,B   0)    172.7731         0.010000   
    240. D(B   0,B  10,B   2,B   9)   -172.7731         0.010000   
    241. D(B   0,B  10,B   2,B   8)   -159.8457         0.010000   
    242. D(B   0,B  10,B   2,B   7)   -103.0725         0.010000   
    243. D(B   9,B  10,B   2,B   8)     12.9275         0.010000   
    244. D(B   0,B  10,B   2,B   1)    -15.2345         0.010000   
    245. D(B   9,B  10,B   0,B   4)     96.4782         0.010000   
    246. D(B   9,B  10,B   0,B   3)    153.1997         0.010000   
    247. D(B  11,B  10,B   9,B   2)     52.3384         0.010000   
    248. D(B   9,B  10,B   0,B   2)     -6.5489         0.010000   
    249. D(B   9,B  10,B   0,B   1)      8.6809         0.010000   
    250. D(B   3,B  11,B  10,B   2)      9.2527         0.010000   
    251. D(B   3,B  11,B  10,B   0)     15.7710         0.010000   
    252. D(B   0,B  11,B  10,B   9)    -52.3796         0.010000   
    253. D(B  10,B  11,B   3,B   4)     -0.0368         0.010000   
    254. D(B  10,B  11,B   3,B   0)    -16.5407         0.010000   
    255. D(B   0,B  11,B   3,B   4)     16.5039         0.010000   
    256. D(B  10,B  11,B   0,B   3)    165.6344         0.010000   
    257. D(B  10,B  11,B   0,B   2)      7.3125         0.010000   
    258. D(B  10,B  11,B   0,B   1)     85.4728         0.010000   
    259. D(B   0,B  11,B  10,B   2)     -6.5183         0.010000   
    260. D(B   3,B  11,B   0,B  10)   -165.6344         0.010000   
    261. D(B   3,B  11,B   0,B   4)    -12.7478         0.010000   
    262. D(B   3,B  11,B   0,B   2)   -158.3218         0.010000   
    263. D(B   3,B  11,B  10,B   9)    -36.6086         0.010000   
    264. D(B   3,B  11,B   0,B   1)    -80.1616         0.010000   
    -----------------------------------------------------------------

Number of atoms                         .... 12
Number of degrees of freedom            .... 264


         *************************************************************
         *                GEOMETRY OPTIMIZATION CYCLE   1            *
         *************************************************************
---------------------------------
CARTESIAN COORDINATES (ANGSTROEM)
---------------------------------
  B      0.950432   -0.239612   -0.381751
  B     -0.267553    0.944669   -0.377446
  B     -0.683972   -0.702138   -0.380674
  B      2.454504    0.195706    0.167502
  B      1.426068    1.466579    0.041859
  B      0.127168    2.458564    0.175323
  B     -1.396686    2.026946    0.176877
  B     -1.982552    0.501172    0.044632
  B     -2.193038   -1.120272    0.168203
  B     -1.057476   -2.224237    0.164674
  B      0.556932   -1.967635    0.036189
  B      2.066172   -1.339742    0.164612

----------------------------
CARTESIAN COORDINATES (A.U.)
----------------------------
  NO LB      ZA    FRAG     MASS         X           Y           Z
   0 B     5.0000    0    10.810    1.796056   -0.452801   -0.721406
   1 B     5.0000    0    10.810   -0.505602    1.785167   -0.713269
   2 B     5.0000    0    10.810   -1.292519   -1.326849   -0.719369
   3 B     5.0000    0    10.810    4.638339    0.369830    0.316533
   4 B     5.0000    0    10.810    2.694878    2.771432    0.079102
   5 B     5.0000    0    10.810    0.240312    4.646012    0.331313
   6 B     5.0000    0    10.810   -2.639353    3.830372    0.334249
   7 B     5.0000    0    10.810   -3.746480    0.947078    0.084341
   8 B     5.0000    0    10.810   -4.144241   -2.117007    0.317857
   9 B     5.0000    0    10.810   -1.998339   -4.203198    0.311189
  10 B     5.0000    0    10.810    1.052449   -3.718291    0.068388
  11 B     5.0000    0    10.810    3.904500   -2.531745    0.311073

--------------------------------
INTERNAL COORDINATES (ANGSTROEM)
--------------------------------
 B      0   0   0     0.000000000000     0.00000000     0.00000000
 B      1   0   0     1.698831657427     0.00000000     0.00000000
 B      1   2   0     1.698589662534    59.99739650     0.00000000
 B      1   2   3     1.659340865107   117.78429165   202.01204804
 B      4   1   2     1.639690400066    67.01112459   352.64685368
 B      5   4   1     1.639813653059   163.62740831    52.59600492
 B      6   5   4     1.583800800193   126.67984025   323.16885393
 B      7   6   5     1.639729712912   126.67480891   359.96929035
 B      8   7   6     1.639711780953   163.72418209    36.68060674
 B      9   8   7     1.583746325345   126.66136537   323.42334484
 B     10   9   8     1.639715023971   126.65780469   359.97611984
 B      4   1   2     1.583795399773    61.49820663   158.32013356

---------------------------
INTERNAL COORDINATES (A.U.)
---------------------------
 B      0   0   0     0.000000000000     0.00000000     0.00000000
 B      1   0   0     3.210326580172     0.00000000     0.00000000
 B      1   2   0     3.209869276099    59.99739650     0.00000000
 B      1   2   3     3.135699797876   117.78429165   202.01204804
 B      4   1   2     3.098565800544    67.01112459   352.64685368
 B      5   4   1     3.098798714946   163.62740831    52.59600492
 B      6   5   4     2.992949763050   126.67984025   323.16885393
 B      7   6   5     3.098640091058   126.67480891   359.96929035
 B      8   7   6     3.098606204566   163.72418209    36.68060674
 B      9   8   7     2.992846820507   126.66136537   323.42334484
 B     10   9   8     3.098612332982   126.65780469   359.97611984
 B      4   1   2     2.992939557736    61.49820663   158.32013356

---------------------
BASIS SET INFORMATION
---------------------
There are 1 groups of distinct atoms

 Group   1 Type B   : 11s6p2d1f contracted to 5s3p2d1f pattern {62111/411/11/1}

Atom   0B    basis set group =>   1
Atom   1B    basis set group =>   1
Atom   2B    basis set group =>   1
Atom   3B    basis set group =>   1
Atom   4B    basis set group =>   1
Atom   5B    basis set group =>   1
Atom   6B    basis set group =>   1
Atom   7B    basis set group =>   1
Atom   8B    basis set group =>   1
Atom   9B    basis set group =>   1
Atom  10B    basis set group =>   1
Atom  11B    basis set group =>   1
---------------------------------
AUXILIARY/J BASIS SET INFORMATION
---------------------------------
There are 1 groups of distinct atoms

 Group   1 Type B   : 12s5p4d2f1g contracted to 6s4p3d1f1g pattern {711111/2111/211/2/1}

Atom   0B    basis set group =>   1
Atom   1B    basis set group =>   1
Atom   2B    basis set group =>   1
Atom   3B    basis set group =>   1
Atom   4B    basis set group =>   1
Atom   5B    basis set group =>   1
Atom   6B    basis set group =>   1
Atom   7B    basis set group =>   1
Atom   8B    basis set group =>   1
Atom   9B    basis set group =>   1
Atom  10B    basis set group =>   1
Atom  11B    basis set group =>   1


           ************************************************************
           *        Program running with 8 parallel MPI-processes     *
           *              working on a common directory               *
           ************************************************************
------------------------------------------------------------------------------
                             ORCA STARTUP CALCULATIONS
                           -- RI-GTO INTEGRALS CHOSEN --
------------------------------------------------------------------------------
------------------------------------------------------------------------------
                   ___                                                        
                  /   \      - P O W E R E D   B Y -                         
                 /     \                                                     
                 |  |  |   _    _      __       _____    __    __             
                 |  |  |  | |  | |    /  \     |  _  \  |  |  /  |          
                  \  \/   | |  | |   /    \    | | | |  |  | /  /          
                 / \  \   | |__| |  /  /\  \   | |_| |  |  |/  /          
                |  |  |   |  __  | /  /__\  \  |    /   |      \           
                |  |  |   | |  | | |   __   |  |    \   |  |\   \          
                \     /   | |  | | |  |  |  |  | |\  \  |  | \   \       
                 \___/    |_|  |_| |__|  |__|  |_| \__\ |__|  \__/        
                                                                              
                      - O R C A' S   B I G   F R I E N D -                    
                                      &                                       
                       - I N T E G R A L  F E E D E R -                       
                                                                              
 v1 FN, 2020, v2 2021, v3 2022-2024                                           
------------------------------------------------------------------------------


----------------------
SHARK INTEGRAL PACKAGE
----------------------

Number of atoms                             ...     12
Number of basis functions                   ...    372
Number of shells                            ...    132
Maximum angular momentum                    ...      3
Integral batch strategy                     ... SHARK/LIBINT Hybrid
RI-J (if used) integral strategy            ... SPLIT-RIJ (Revised 2003 algorithm where possible)
Printlevel                                  ...      1
Contraction scheme used                     ... SEGMENTED contraction
Prescreening option                         ... SCHWARTZ
   Thresh                                   ... 2.500e-11
   Tcut                                     ... 2.500e-12
   Tpresel                                  ... 2.500e-12 
Coulomb Range Separation                    ... NOT USED
Exchange Range Separation                   ... NOT USED
Multipole approximations                    ... NOT USED
Finite Nucleus Model                        ... NOT USED
CABS basis                                  ... NOT available
Auxiliary Coulomb fitting basis             ... AVAILABLE
   # of basis functions in Aux-J            ...    588
   # of shells in Aux-J                     ...    180
   Maximum angular momentum in Aux-J        ...      4
Auxiliary J/K fitting basis                 ... NOT available
Auxiliary Correlation fitting basis         ... NOT available
Auxiliary 'external' fitting basis          ... NOT available

Checking pre-screening integrals            ... done (  0.0 sec) Dimension = 132
   => SHARK Basis and OBASIS are compatible. Storing Pre-screening
Shell pair information
Shell pair cut-off parameter TPreSel        ...   2.5e-12
Total number of shell pairs                 ...      8778
Shell pairs after pre-screening             ...      8460
Total number of primitive shell pairs       ...     29184
Primitive shell pairs kept                  ...     21408
          la=0 lb=0:   1644 shell pairs
          la=1 lb=0:   2112 shell pairs
          la=1 lb=1:    666 shell pairs
          la=2 lb=0:   1380 shell pairs
          la=2 lb=1:    864 shell pairs
          la=2 lb=2:    300 shell pairs
          la=3 lb=0:    696 shell pairs
          la=3 lb=1:    432 shell pairs
          la=3 lb=2:    288 shell pairs
          la=3 lb=3:     78 shell pairs

Checking whether 4 symmetric matrices of dimension 372 fit in memory
:Max Core in MB      =   2500.00
 MB in use           =     14.68
 MB left             =   2485.32
 MB needed           =      2.12
 Data fit in memory  = YES
Calculating RI/J V-Matrix + Cholesky decomp.... done (  0.0 sec)
Calculating Nuclear repulsion               ... done (  0.0 sec) ENN=    348.484566524259 Eh

Diagonalization of the overlap matrix:
Smallest eigenvalue                        ... 1.039e-05
Time for diagonalization                   ...    0.028 sec
Threshold for overlap eigenvalues          ... 1.000e-07
Number of eigenvalues below threshold      ... 0
Time for construction of square roots      ...    0.012 sec
Total time needed                          ...    0.044 sec

-------------------
DFT GRID GENERATION
-------------------

General Integration Accuracy     IntAcc      ... 4.388
Radial Grid Type                 RadialGrid  ... OptM3 with GC (2021)
Angular Grid (max. ang.)         AngularGrid ... 4 (Lebedev-302)
Angular grid pruning method      GridPruning ... 4 (adaptive)
Weight generation scheme         WeightScheme... mBecke (2022)
Basis function cutoff            BFCut       ... 1.0000e-11
Integration weight cutoff        WCut        ... 1.0000e-14
Partially contracted basis set               ... off
Rotationally invariant grid construction     ... off
Angular grids for H and He will be reduced by one unit

Total number of grid points                  ...    70934
Total number of batches                      ...     1116
Average number of points per batch           ...       63
Average number of grid points per atom       ...     5911

--------------------
COSX GRID GENERATION
--------------------

GRIDX 1
-------
General Integration Accuracy     IntAcc      ... 3.816
Radial Grid Type                 RadialGrid  ... OptM3 with GC (2021)
Angular Grid (max. ang.)         AngularGrid ... 1 (Lebedev-50)
Angular grid pruning method      GridPruning ... 4 (adaptive)
Weight generation scheme         WeightScheme... mBecke (2022)
Basis function cutoff            BFCut       ... 1.0000e-11
Integration weight cutoff        WCut        ... 1.0000e-14
Partially contracted basis set               ... on
Rotationally invariant grid construction     ... off
Angular grids for H and He will be reduced by one unit

Total number of grid points                  ...     8901
Total number of batches                      ...       76
Average number of points per batch           ...      117
Average number of grid points per atom       ...      742
UseSFitting                                  ... on

GRIDX 2
-------
General Integration Accuracy     IntAcc      ... 4.020
Radial Grid Type                 RadialGrid  ... OptM3 with GC (2021)
Angular Grid (max. ang.)         AngularGrid ... 2 (Lebedev-110)
Angular grid pruning method      GridPruning ... 4 (adaptive)
Weight generation scheme         WeightScheme... mBecke (2022)
Basis function cutoff            BFCut       ... 1.0000e-11
Integration weight cutoff        WCut        ... 1.0000e-14
Partially contracted basis set               ... on
Rotationally invariant grid construction     ... off
Angular grids for H and He will be reduced by one unit

Total number of grid points                  ...    21114
Total number of batches                      ...      169
Average number of points per batch           ...      124
Average number of grid points per atom       ...     1760
UseSFitting                                  ... on

GRIDX 3
-------
General Integration Accuracy     IntAcc      ... 4.338
Radial Grid Type                 RadialGrid  ... OptM3 with GC (2021)
Angular Grid (max. ang.)         AngularGrid ... 3 (Lebedev-194)
Angular grid pruning method      GridPruning ... 4 (adaptive)
Weight generation scheme         WeightScheme... mBecke (2022)
Basis function cutoff            BFCut       ... 1.0000e-11
Integration weight cutoff        WCut        ... 1.0000e-14
Partially contracted basis set               ... on
Rotationally invariant grid construction     ... off
Angular grids for H and He will be reduced by one unit

Total number of grid points                  ...    46804
Total number of batches                      ...      372
Average number of points per batch           ...      125
Average number of grid points per atom       ...     3900
UseSFitting                                  ... on
Grids setup in   1.5 sec
Initializing property integral containers    ... done (  0.0 sec)

SHARK setup successfully completed in   2.1 seconds

Maximum memory used throughout the entire STARTUP-calculation: 30.0 MB


           ************************************************************
           *        Program running with 8 parallel MPI-processes     *
           *              working on a common directory               *
           ************************************************************
-------------------------------------------------------------------------------
                                 ORCA GUESS
                   Start orbitals & Density for SCF / CASSCF
-------------------------------------------------------------------------------

------------
SCF SETTINGS
------------
Hamiltonian:
 Density Functional     Method          .... DFT(GTOs)
 Exchange Functional    Exchange        .... B88
   X-Alpha parameter    XAlpha          ....  0.666667
   Becke's b parameter  XBeta           ....  0.004200
 Correlation Functional Correlation     .... LYP
 LDA part of GGA corr.  LDAOpt          .... VWN-5
 Gradients option       PostSCFGGA      .... off
 Hybrid DFT is turned on
   Fraction HF Exchange ScalHFX         ....  0.200000
   Scaling of DF-GGA-X  ScalDFX         ....  0.720000
   Scaling of DF-GGA-C  ScalDFC         ....  0.810000
   Scaling of DF-LDA-C  ScalLDAC        ....  1.000000
   Perturbative correction              ....  0.000000
   NL short-range parameter             ....  4.800000
 RI-approximation to the Coulomb term is turned on
   Number of AuxJ basis functions       .... 588
   RIJ-COSX (HFX calculated with COS-X)).... on


General Settings:
 Integral files         IntName         .... rank04_quasi_planar_nn3.00
 Hartree-Fock type      HFTyp           .... RHF
 Total Charge           Charge          ....    0
 Multiplicity           Mult            ....    1
 Number of Electrons    NEL             ....   60
 Basis Dimension        Dim             ....  372
 Nuclear Repulsion      ENuc            ....    348.4845665243 Eh

Convergence Acceleration:
 AO-DIIS                CNVDIIS         .... on
   Start iteration      DIISMaxIt       ....    12
   Startup error        DIISStart       ....  0.200000
   # of expansion vecs  DIISMaxEq       ....     5
   Bias factor          DIISBfac        ....   1.050
   Max. coefficient     DIISMaxC        ....  10.000
 MO-DIIS                CNVKDIIS        .... off
 Trust-Rad. Augm. Hess. CNVTRAH         .... auto
   Auto Start mean grad. ratio tolernc. ....  1.125000
   Auto Start start iteration           ....    50
   Auto Start num. interpolation iter.  ....    10
   Max. Number of Micro iterations      ....    24
   Max. Number of Macro iterations      .... Maxiter - #DIIS iter
   Number of Davidson start vectors     ....     2
   Converg. threshold    (grad. norm)   ....   1.000e-05
   Grad. Scal. Fac. for Micro threshold ....   0.100
   Minimum threshold for Micro iter.    ....   1.000e-02
   NR start threshold (gradient norm)   ....   1.000e-04
   Initial trust radius                 ....   0.400
   Minimum AH scaling param. (alpha)    ....   1.000
   Maximum AH scaling param. (alpha)    .... 1000.000
   Quad. conv. algorithm                .... NR
   White noise on init. David. guess    .... on
   Maximum white noise                  ....   0.010
   Pseudo random numbers                .... off
   Inactive MOs                         .... canonical
   Orbital update algorithm             .... Taylor
   Preconditioner                       .... Diag
   Full preconditioner red. dimension   ....   250
 SOSCF                 CNVSOSCF           .... on
   Start iteration     SOSCFMaxIt         ....   150
   Startup grad/error  SOSCFStart         ....  0.003300
   Hessian update      SOSCFHessUp        .... L-BFGS
   Autom. constraints  SOSCFAutoConstrain .... off
 Level Shifting         CNVShift        .... on
   Level shift para.    LevelShift      ....    0.2500
   Turn off err/grad.   ShiftErr        ....    0.0010
 Zerner damping         CNVZerner       .... off
 Static damping         CNVDamp         .... on
   Fraction old density DampFac         ....    0.7000
   Max. Damping (<1)    DampMax         ....    0.9800
   Min. Damping (>=0)   DampMin         ....    0.0000
   Turn off err/grad.   DampErr         ....    0.1000

SCF Procedure:
 Maximum # iterations   MaxIter         ....   125
 SCF integral mode      SCFMode         .... Direct
   Integral package                     .... SHARK and LIBINT hybrid scheme
 Reset frequency        DirectResetFreq ....    20
 Integral Threshold     Thresh          ....  2.500e-11 Eh
 Primitive CutOff       TCut            ....  2.500e-12 Eh

Convergence Tolerance:
 Convergence Check Mode ConvCheckMode   .... Total+1el-Energy
 Convergence forced     ConvForced      .... 0
 Energy Change          TolE            ....  1.000e-08 Eh
 1-El. energy change                    ....  1.000e-05 Eh
 Orbital Gradient       TolG            ....  1.000e-05
 Orbital Rotation angle TolX            ....  1.000e-05
 DIIS Error             TolErr          ....  5.000e-07

------------------------------
INITIAL GUESS: MODEL POTENTIAL
------------------------------
Loading Hartree-Fock densities                     ... done
Calculating cut-offs                               ... done
Initializing the effective Hamiltonian             ... done
Setting up the integral package (SHARK)            ... done
Starting the Coulomb interaction                   ... done (   0.2 sec)
Making the grid                                    ... done (   0.2 sec)
Mapping shells                                     ... done
Starting the XC term evaluation                    ... done (   0.2 sec)
  promolecular density results
     # of electrons  =     60.000430760
     EX              =    -45.922008582
     EC              =     -1.894320132
     EX+EC           =    -47.816328714
Transforming the Hamiltonian                       ... done (   0.0 sec)
Diagonalizing the Hamiltonian                      ... done (   0.0 sec)
Back transforming the eigenvectors                 ... done (   0.0 sec)
Now organizing SCF variables                       ... done
                      ------------------
                      INITIAL GUESS DONE (   0.6 sec)
                      ------------------
             **** ENERGY FILE WAS UPDATED (rank04_quasi_planar_nn3.00.en.tmp) ****
Finished Guess after   1.1 sec
Maximum memory used throughout the entire GUESS-calculation: 22.5 MB


           ************************************************************
           *        Program running with 8 parallel MPI-processes     *
           *              working on a common directory               *
           ************************************************************

-------------------------------------------------------------------------------------------
                                      ORCA LEAN-SCF
                              memory conserving SCF solver
-------------------------------------------------------------------------------------------

----------------------------------------D-I-I-S--------------------------------------------
Iteration    Energy (Eh)           Delta-E    RMSDP     MaxDP     DIISErr   Damp  Time(sec)
-------------------------------------------------------------------------------------------
               ***  Starting incremental Fock matrix formation  ***
    1    -297.4712535746701292     0.00e+00  6.52e-03  8.45e-02  1.33e-01  0.700   4.2
    2    -297.6386643754956935    -1.67e-01  4.48e-03  4.06e-02  6.97e-02  0.700   2.6
                               ***Turning on AO-DIIS***
    3    -297.7078310801373959    -6.92e-02  2.39e-03  2.17e-02  2.90e-02  0.700   2.7
    4    -297.7482158001128596    -4.04e-02  5.29e-03  5.17e-02  1.65e-02  0.000   2.3
    5    -297.8346378820365885    -8.64e-02  7.92e-04  1.06e-02  6.65e-03  0.000   2.5
                              *** Initializing SOSCF ***
---------------------------------------S-O-S-C-F--------------------------------------
Iteration    Energy (Eh)           Delta-E    RMSDP     MaxDP     MaxGrad    Time(sec)
--------------------------------------------------------------------------------------
    6    -297.8357431608428101    -1.11e-03  5.89e-04  1.35e-02  1.63e-03     2.4
               *** Restarting incremental Fock matrix formation ***
    7    -297.8358272606756714    -8.41e-05  7.93e-04  2.03e-02  3.97e-04     4.1
    8    -297.8358416367775021    -1.44e-05  2.26e-04  5.66e-03  2.34e-04     3.8
    9    -297.8358450855124033    -3.45e-06  1.40e-04  3.48e-03  1.62e-04     3.4
   10    -297.8358457669490349    -6.81e-07  6.80e-05  1.76e-03  1.46e-04     4.7
   11    -297.8358462169425707    -4.50e-07  4.69e-05  1.10e-03  6.17e-05     4.0
   12    -297.8358464373384891    -2.20e-07  7.26e-06  1.66e-04  1.83e-05     3.5
   13    -297.8358464676593371    -3.03e-08  6.83e-06  1.71e-04  9.75e-06     3.3
   14    -297.8358464604619371     7.20e-09  3.04e-06  6.39e-05  1.95e-05     3.4
                 **** Energy Check signals convergence ****

               *****************************************************
               *                     SUCCESS                       *
               *           SCF CONVERGED AFTER  14 CYCLES          *
               *****************************************************

Recomputing exchange energy using gridx3       ... done (    6.577 sec)
Old exchange energy                            :     -9.312456317 Eh
New exchange energy                            :     -9.312447405 Eh
Exchange energy change after final integration :      0.000008911 Eh
Total energy after final integration           :   -297.835837557 Eh
             **** ENERGY FILE WAS UPDATED (rank04_quasi_planar_nn3.00.en.tmp) ****

----------------
TOTAL SCF ENERGY
----------------

Total Energy       :       -297.83583755737584 Eh           -8104.52517 eV

Components:
Nuclear Repulsion  :        348.48456652425938 Eh            9482.74715 eV
Electronic Energy  :       -646.32041299302716 Eh          -17587.27256 eV
One Electron Energy:      -1085.72405325991190 Eh          -29544.05348 eV
Two Electron Energy:        439.40364026688474 Eh           11956.78092 eV

Virial components:
Potential Energy   :       -593.60279187835090 Eh          -16152.75316 eV
Kinetic Energy     :        295.76695432097512 Eh            8048.22799 eV
Virial Ratio       :          2.00699497765445

DFT components:
N(Alpha)           :       29.999993810134 electrons
N(Beta)            :       29.999993810134 electrons
N(Total)           :       59.999987620267 electrons
E(X)               :      -36.939957461099 Eh       
E(C)               :       -2.272684404341 Eh       
E(XC)              :      -39.212641865440 Eh       

---------------
SCF CONVERGENCE
---------------

  Last Energy change         ...   -7.1974e-09  Tolerance :   1.0000e-08
  Last MAX-Density change    ...    6.3857e-05  Tolerance :   1.0000e-07
  Last RMS-Density change    ...    3.0397e-06  Tolerance :   5.0000e-09
  Last DIIS Error            ...    1.6312e-03  Tolerance :   5.0000e-07
  Last Orbital Gradient      ...    1.9486e-05  Tolerance :   1.0000e-05
  Last Orbital Rotation      ...    3.2505e-05  Tolerance :   1.0000e-05


----------------
ORBITAL ENERGIES
----------------

  NO   OCC          E(Eh)            E(eV) 
   0   2.0000      -6.802932      -185.1172 
   1   2.0000      -6.802878      -185.1157 
   2   2.0000      -6.802867      -185.1154 
   3   2.0000      -6.799802      -185.0320 
   4   2.0000      -6.799235      -185.0166 
   5   2.0000      -6.799212      -185.0160 
   6   2.0000      -6.778787      -184.4602 
   7   2.0000      -6.778784      -184.4601 
   8   2.0000      -6.778767      -184.4596 
   9   2.0000      -6.778005      -184.4389 
  10   2.0000      -6.777992      -184.4385 
  11   2.0000      -6.777988      -184.4384 
  12   2.0000      -0.772454       -21.0195 
  13   2.0000      -0.687219       -18.7002 
  14   2.0000      -0.687211       -18.6999 
  15   2.0000      -0.571466       -15.5504 
  16   2.0000      -0.571460       -15.5502 
  17   2.0000      -0.567062       -15.4306 
  18   2.0000      -0.450504       -12.2588 
  19   2.0000      -0.402227       -10.9452 
  20   2.0000      -0.382199       -10.4002 
  21   2.0000      -0.359158        -9.7732 
  22   2.0000      -0.359146        -9.7729 
  23   2.0000      -0.339364        -9.2346 
  24   2.0000      -0.339362        -9.2345 
  25   2.0000      -0.309250        -8.4151 
  26   2.0000      -0.284638        -7.7454 
  27   2.0000      -0.284633        -7.7452 
  28   2.0000      -0.257760        -7.0140 
  29   2.0000      -0.257751        -7.0138 
  30   0.0000      -0.126705        -3.4478 
  31   0.0000      -0.126680        -3.4471 
  32   0.0000      -0.117556        -3.1989 
  33   0.0000      -0.094355        -2.5675 
  34   0.0000      -0.036972        -1.0061 
  35   0.0000      -0.036960        -1.0057 
  36   0.0000      -0.005974        -0.1626 
  37   0.0000      -0.002790        -0.0759 
  38   0.0000      -0.002676        -0.0728 
  39   0.0000       0.001571         0.0428 
  40   0.0000       0.009679         0.2634 
*Only the first 10 virtual orbitals were printed.

                    ********************************
                    * MULLIKEN POPULATION ANALYSIS *
                    ********************************

-----------------------
MULLIKEN ATOMIC CHARGES
-----------------------
   0 B :    0.289072
   1 B :    0.289112
   2 B :    0.288674
   3 B :   -0.157354
   4 B :    0.025445
   5 B :   -0.157411
   6 B :   -0.157314
   7 B :    0.025889
   8 B :   -0.157392
   9 B :   -0.157396
  10 B :    0.026098
  11 B :   -0.157424
Sum of atomic charges:    0.0000000

--------------------------------
MULLIKEN REDUCED ORBITAL CHARGES
--------------------------------
  0 B s       :     2.809202  s :     2.809202
      pz      :     0.642725  p :     1.724169
      px      :     0.519095
      py      :     0.562349
      dz2     :     0.013971  d :     0.161805
      dxz     :     0.017116
      dyz     :     0.021547
      dx2y2   :     0.061811
      dxy     :     0.047360
      f0      :     0.002160  f :     0.015752
      f+1     :     0.001708
      f-1     :     0.001317
      f+2     :     0.001071
      f-2     :     0.000977
      f+3     :     0.004666
      f-3     :     0.003852

  1 B s       :     2.809027  s :     2.809027
      pz      :     0.641974  p :     1.724375
      px      :     0.561865
      py      :     0.520536
      dz2     :     0.014053  d :     0.161734
      dxz     :     0.021507
      dyz     :     0.017103
      dx2y2   :     0.060447
      dxy     :     0.048624
      f0      :     0.002139  f :     0.015752
      f+1     :     0.001322
      f-1     :     0.001717
      f+2     :     0.001088
      f-2     :     0.000987
      f+3     :     0.004664
      f-3     :     0.003835

  2 B s       :     2.809238  s :     2.809238
      pz      :     0.642545  p :     1.724790
      px      :     0.542090
      py      :     0.540155
      dz2     :     0.013953  d :     0.161546
      dxz     :     0.019400
      dyz     :     0.019289
      dx2y2   :     0.041266
      dxy     :     0.067637
      f0      :     0.002163  f :     0.015751
      f+1     :     0.001509
      f-1     :     0.001510
      f+2     :     0.000931
      f-2     :     0.001116
      f+3     :     0.004685
      f-3     :     0.003837

  3 B s       :     3.337612  s :     3.337612
      pz      :     0.423390  p :     1.741502
      px      :     0.545169
      py      :     0.772943
      dz2     :     0.008253  d :     0.072869
      dxz     :     0.013385
      dyz     :     0.010155
      dx2y2   :     0.022041
      dxy     :     0.019035
      f0      :     0.000985  f :     0.005371
      f+1     :     0.000734
      f-1     :    -0.000180
      f+2     :     0.000215
      f-2     :     0.000663
      f+3     :     0.001214
      f-3     :     0.001740

  4 B s       :     3.163513  s :     3.163513
      pz      :     0.424347  p :     1.708827
      px      :     0.645379
      py      :     0.639101
      dz2     :     0.003903  d :     0.093190
      dxz     :     0.019096
      dyz     :     0.018860
      dx2y2   :     0.028789
      dxy     :     0.022542
      f0      :     0.001650  f :     0.009024
      f+1     :     0.000390
      f-1     :     0.000421
      f+2     :     0.000836
      f-2     :     0.000874
      f+3     :     0.002539
      f-3     :     0.002313

  5 B s       :     3.337722  s :     3.337722
      pz      :     0.423900  p :     1.741439
      px      :     0.774473
      py      :     0.543066
      dz2     :     0.008276  d :     0.072879
      dxz     :     0.010011
      dyz     :     0.013556
      dx2y2   :     0.022708
      dxy     :     0.018328
      f0      :     0.000978  f :     0.005371
      f+1     :    -0.000187
      f-1     :     0.000746
      f+2     :     0.000185
      f-2     :     0.000703
      f+3     :     0.001997
      f-3     :     0.000949

  6 B s       :     3.337459  s :     3.337459
      pz      :     0.424148  p :     1.741569
      px      :     0.687448
      py      :     0.629972
      dz2     :     0.008313  d :     0.072914
      dxz     :     0.014100
      dyz     :     0.009472
      dx2y2   :     0.014475
      dxy     :     0.026552
      f0      :     0.000975  f :     0.005373
      f+1     :     0.000144
      f-1     :     0.000419
      f+2     :     0.000867
      f-2     :     0.000022
      f+3     :     0.001215
      f-3     :     0.001730

  7 B s       :     3.162090  s :     3.162090
      pz      :     0.424504  p :     1.709895
      px      :     0.548119
      py      :     0.737273
      dz2     :     0.003865  d :     0.093096
      dxz     :     0.014686
      dyz     :     0.023325
      dx2y2   :     0.023861
      dxy     :     0.027359
      f0      :     0.001649  f :     0.009030
      f+1     :     0.000793
      f-1     :     0.000020
      f+2     :     0.000872
      f-2     :     0.000844
      f+3     :     0.002547
      f-3     :     0.002305

  8 B s       :     3.337243  s :     3.337243
      pz      :     0.423629  p :     1.741815
      px      :     0.578280
      py      :     0.739906
      dz2     :     0.008265  d :     0.072963
      dxz     :     0.015718
      dyz     :     0.007833
      dx2y2   :     0.024607
      dxy     :     0.016540
      f0      :     0.000986  f :     0.005372
      f+1     :     0.000580
      f-1     :    -0.000027
      f+2     :     0.000289
      f-2     :     0.000588
      f+3     :     0.002007
      f-3     :     0.000947

  9 B s       :     3.337316  s :     3.337316
      pz      :     0.423403  p :     1.741751
      px      :     0.744512
      py      :     0.573836
      dz2     :     0.008232  d :     0.072957
      dxz     :     0.007839
      dyz     :     0.015717
      dx2y2   :     0.025117
      dxy     :     0.016052
      f0      :     0.000991  f :     0.005372
      f+1     :    -0.000043
      f-1     :     0.000591
      f+2     :     0.000241
      f-2     :     0.000633
      f+3     :     0.001223
      f-3     :     0.001736

 10 B s       :     3.161834  s :     3.161834
      pz      :     0.423980  p :     1.709951
      px      :     0.734397
      py      :     0.551573
      dz2     :     0.003840  d :     0.093087
      dxz     :     0.023092
      dyz     :     0.014835
      dx2y2   :     0.024194
      dxy     :     0.027125
      f0      :     0.001658  f :     0.009031
      f+1     :     0.000031
      f-1     :     0.000776
      f+2     :     0.000857
      f-2     :     0.000845
      f+3     :     0.002550
      f-3     :     0.002314

 11 B s       :     3.337530  s :     3.337530
      pz      :     0.423554  p :     1.741593
      px      :     0.623919
      py      :     0.694121
      dz2     :     0.008241  d :     0.072928
      dxz     :     0.009656
      dyz     :     0.013896
      dx2y2   :     0.014390
      dxy     :     0.026744
      f0      :     0.000989  f :     0.005373
      f+1     :     0.000438
      f-1     :     0.000112
      f+2     :     0.000849
      f-2     :     0.000026
      f+3     :     0.002004
      f-3     :     0.000955



                     *******************************
                     * LOEWDIN POPULATION ANALYSIS *
                     *******************************

----------------------
LOEWDIN ATOMIC CHARGES
----------------------
   0 B :   -0.212755
   1 B :   -0.212807
   2 B :   -0.213038
   3 B :    0.080441
   4 B :    0.051963
   5 B :    0.080438
   6 B :    0.080516
   7 B :    0.051843
   8 B :    0.080515
   9 B :    0.080580
  10 B :    0.051780
  11 B :    0.080524

-------------------------------
LOEWDIN REDUCED ORBITAL CHARGES
-------------------------------
  0 B s       :     2.410164  s :     2.410164
      pz      :     0.517275  p :     1.982055
      px      :     0.765659
      py      :     0.699121
      dz2     :     0.058743  d :     0.716635
      dxz     :     0.096399
      dyz     :     0.093836
      dx2y2   :     0.245620
      dxy     :     0.222036
      f0      :     0.008430  f :     0.103902
      f+1     :     0.008550
      f-1     :     0.006372
      f+2     :     0.010340
      f-2     :     0.008959
      f+3     :     0.032708
      f-3     :     0.028542

  1 B s       :     2.410165  s :     2.410165
      pz      :     0.517785  p :     1.982080
      px      :     0.700077
      py      :     0.764218
      dz2     :     0.058844  d :     0.716664
      dxz     :     0.094235
      dyz     :     0.096598
      dx2y2   :     0.243183
      dxy     :     0.223804
      f0      :     0.008431  f :     0.103898
      f+1     :     0.006364
      f-1     :     0.008506
      f+2     :     0.010399
      f-2     :     0.009125
      f+3     :     0.032654
      f-3     :     0.028419

  2 B s       :     2.410110  s :     2.410110
      pz      :     0.517242  p :     1.982153
      px      :     0.731278
      py      :     0.733632
      dz2     :     0.058771  d :     0.716858
      dxz     :     0.095102
      dyz     :     0.095189
      dx2y2   :     0.212415
      dxy     :     0.255381
      f0      :     0.008437  f :     0.103917
      f+1     :     0.007413
      f-1     :     0.007498
      f+2     :     0.008340
      f-2     :     0.010936
      f+3     :     0.032820
      f-3     :     0.028474

  3 B s       :     2.640387  s :     2.640387
      pz      :     0.425159  p :     1.940330
      px      :     0.611241
      py      :     0.903931
      dz2     :     0.029245  d :     0.281327
      dxz     :     0.040240
      dyz     :     0.033388
      dx2y2   :     0.085818
      dxy     :     0.092636
      f0      :     0.005762  f :     0.057514
      f+1     :     0.005159
      f-1     :     0.005451
      f+2     :     0.002783
      f-2     :     0.004988
      f+3     :     0.014958
      f-3     :     0.018414

  4 B s       :     2.579509  s :     2.579509
      pz      :     0.392698  p :     1.901704
      px      :     0.759384
      py      :     0.749621
      dz2     :     0.031933  d :     0.404540
      dxz     :     0.054956
      dyz     :     0.053822
      dx2y2   :     0.155041
      dxy     :     0.108787
      f0      :     0.006172  f :     0.062284
      f+1     :     0.005079
      f-1     :     0.005027
      f+2     :     0.003547
      f-2     :     0.004870
      f+3     :     0.019007
      f-3     :     0.018582

  5 B s       :     2.640397  s :     2.640397
      pz      :     0.425934  p :     1.940357
      px      :     0.906421
      py      :     0.608002
      dz2     :     0.029238  d :     0.281302
      dxz     :     0.033164
      dyz     :     0.040688
      dx2y2   :     0.085688
      dxy     :     0.092523
      f0      :     0.005745  f :     0.057506
      f+1     :     0.005434
      f-1     :     0.005166
      f+2     :     0.002711
      f-2     :     0.005163
      f+3     :     0.019603
      f-3     :     0.013685

  6 B s       :     2.640407  s :     2.640407
      pz      :     0.426099  p :     1.940290
      px      :     0.787521
      py      :     0.726670
      dz2     :     0.029279  d :     0.281273
      dxz     :     0.041524
      dyz     :     0.032299
      dx2y2   :     0.091272
      dxy     :     0.086899
      f0      :     0.005735  f :     0.057513
      f+1     :     0.005263
      f-1     :     0.005350
      f+2     :     0.005710
      f-2     :     0.002173
      f+3     :     0.014946
      f-3     :     0.018337

  7 B s       :     2.579398  s :     2.579398
      pz      :     0.392850  p :     1.901794
      px      :     0.608392
      py      :     0.900552
      dz2     :     0.031953  d :     0.404663
      dxz     :     0.035317
      dyz     :     0.073588
      dx2y2   :     0.119194
      dxy     :     0.144610
      f0      :     0.006171  f :     0.062303
      f+1     :     0.004135
      f-1     :     0.005974
      f+2     :     0.004605
      f-2     :     0.003840
      f+3     :     0.019049
      f-3     :     0.018529

  8 B s       :     2.640375  s :     2.640375
      pz      :     0.425221  p :     1.940306
      px      :     0.647102
      py      :     0.867983
      dz2     :     0.029246  d :     0.281292
      dxz     :     0.044868
      dyz     :     0.028719
      dx2y2   :     0.090809
      dxy     :     0.087650
      f0      :     0.005763  f :     0.057512
      f+1     :     0.005139
      f-1     :     0.005476
      f+2     :     0.003427
      f-2     :     0.004327
      f+3     :     0.019686
      f-3     :     0.013694

  9 B s       :     2.640412  s :     2.640412
      pz      :     0.424919  p :     1.940226
      px      :     0.873567
      py      :     0.641739
      dz2     :     0.029162  d :     0.281273
      dxz     :     0.028723
      dyz     :     0.044840
      dx2y2   :     0.090461
      dxy     :     0.088087
      f0      :     0.005785  f :     0.057510
      f+1     :     0.005482
      f-1     :     0.005104
      f+2     :     0.003197
      f-2     :     0.004532
      f+3     :     0.015011
      f-3     :     0.018399

 10 B s       :     2.579365  s :     2.579365
      pz      :     0.392126  p :     1.901827
      px      :     0.896062
      py      :     0.613639
      dz2     :     0.031971  d :     0.404719
      dxz     :     0.072693
      dyz     :     0.035791
      dx2y2   :     0.121674
      dxy     :     0.142590
      f0      :     0.006183  f :     0.062309
      f+1     :     0.005955
      f-1     :     0.004169
      f+2     :     0.004461
      f-2     :     0.003889
      f+3     :     0.019059
      f-3     :     0.018593

 11 B s       :     2.640403  s :     2.640403
      pz      :     0.425096  p :     1.940299
      px      :     0.718837
      py      :     0.796366
      dz2     :     0.029174  d :     0.281264
      dxz     :     0.032548
      dyz     :     0.041023
      dx2y2   :     0.091176
      dxy     :     0.087343
      f0      :     0.005779  f :     0.057509
      f+1     :     0.005331
      f-1     :     0.005257
      f+2     :     0.005567
      f-2     :     0.002171
      f+3     :     0.019667
      f-3     :     0.013737



                      *****************************
                      * MAYER POPULATION ANALYSIS *
                      *****************************

  NA   - Mulliken gross atomic population
  ZA   - Total nuclear charge
  QA   - Mulliken gross atomic charge
  VA   - Mayer's total valence
  BVA  - Mayer's bonded valence
  FA   - Mayer's free valence

  ATOM       NA         ZA         QA         VA         BVA        FA
  0 B      4.7109     5.0000     0.2891     3.2246     3.2246     0.0000
  1 B      4.7109     5.0000     0.2891     3.2245     3.2245     0.0000
  2 B      4.7113     5.0000     0.2887     3.2265     3.2265     0.0000
  3 B      5.1574     5.0000    -0.1574     3.3238     3.3238    -0.0000
  4 B      4.9746     5.0000     0.0254     3.3719     3.3719    -0.0000
  5 B      5.1574     5.0000    -0.1574     3.3238     3.3238    -0.0000
  6 B      5.1573     5.0000    -0.1573     3.3243     3.3243    -0.0000
  7 B      4.9741     5.0000     0.0259     3.3727     3.3727    -0.0000
  8 B      5.1574     5.0000    -0.1574     3.3247     3.3247     0.0000
  9 B      5.1574     5.0000    -0.1574     3.3246     3.3246     0.0000
 10 B      4.9739     5.0000     0.0261     3.3728     3.3728     0.0000
 11 B      5.1574     5.0000    -0.1574     3.3244     3.3244     0.0000

  Mayer bond orders larger than 0.100000
B(  0-B ,  1-B ) :   0.5883 B(  0-B ,  2-B ) :   0.5886 B(  0-B ,  3-B ) :   0.5076 
B(  0-B ,  4-B ) :   0.4436 B(  0-B , 10-B ) :   0.4437 B(  0-B , 11-B ) :   0.5074 
B(  1-B ,  2-B ) :   0.5886 B(  1-B ,  4-B ) :   0.4436 B(  1-B ,  5-B ) :   0.5075 
B(  1-B ,  6-B ) :   0.5073 B(  1-B ,  7-B ) :   0.4436 B(  2-B ,  7-B ) :   0.4438 
B(  2-B ,  8-B ) :   0.5081 B(  2-B ,  9-B ) :   0.5080 B(  2-B , 10-B ) :   0.4438 
B(  3-B ,  4-B ) :   1.0939 B(  3-B , 11-B ) :   1.4065 B(  4-B ,  5-B ) :   1.0939 
B(  5-B ,  6-B ) :   1.4066 B(  6-B ,  7-B ) :   1.0943 B(  7-B ,  8-B ) :   1.0943 
B(  8-B ,  9-B ) :   1.4062 B(  9-B , 10-B ) :   1.0942 B( 10-B , 11-B ) :   1.0943 


-------
TIMINGS
-------

Total SCF time: 0 days 0 hours 0 min 57 sec 

Total time                  ....      57.567 sec
Sum of individual times     ....      54.308 sec  ( 94.3%)

SCF preparation             ....       0.669 sec  (  1.2%)
Fock matrix formation       ....      51.530 sec  ( 89.5%)
  Startup                   ....       0.033 sec  (  0.1% of F)
  Split-RI-J                ....       4.923 sec  (  9.6% of F)
  Chain of spheres X        ....      40.276 sec  ( 78.2% of F)
  XC integration            ....       8.926 sec  ( 17.3% of F)
    XC Preparation          ....       0.000 sec  (  0.0% of XC)
    Basis function eval.    ....       1.348 sec  ( 15.1% of XC)
    Density eval.           ....       2.016 sec  ( 22.6% of XC)
    XC-Functional eval.     ....       0.096 sec  (  1.1% of XC)
    XC-Potential eval.      ....       3.015 sec  ( 33.8% of XC)
Diagonalization             ....       0.000 sec  (  0.0%)
Density matrix formation    ....       0.339 sec  (  0.6%)
Total Energy calculation    ....       0.115 sec  (  0.2%)
Population analysis         ....       0.082 sec  (  0.1%)
Orbital Transformation      ....       0.153 sec  (  0.3%)
Orbital Orthonormalization  ....       0.000 sec  (  0.0%)
DIIS solution               ....       0.668 sec  (  1.2%)
SOSCF solution              ....       0.751 sec  (  1.3%)
[...]
     28      -0.315178  -0.279625   0.149158  -0.198758   0.089824   0.018402
     29       0.100748   0.095447  -0.065618  -0.030326  -0.045204   0.004698
     30      -0.059745   0.077579   0.073293   0.336941   0.267037  -0.457228
     31      -0.017099  -0.072243   0.077217   0.106974   0.060553  -0.129432
     32       0.000135  -0.003920   0.002363   0.017883  -0.023232   0.000061
     33      -0.207296   0.339938  -0.223038  -0.047443   0.097076   0.206873
     34       0.242600  -0.099442   0.070842  -0.072834   0.312078   0.105619
     35      -0.100928   0.102698  -0.053567   0.051441   0.017806  -0.004749
                 30         31         32         33         34         35    
      0      -0.465973   0.136656  -0.168446   0.484894  -0.009225   0.065324
      1       0.051878  -0.203690   0.042513  -0.122714   0.065081   0.008868
      2      -0.135214   0.052707  -0.019139   0.091919  -0.003733   0.009487
      3      -0.000229  -0.217064   0.047193  -0.136042   0.060896  -0.024563
      4       0.404203   0.261888  -0.167396   0.481194  -0.024921  -0.061046
      5       0.114923   0.091972  -0.019957   0.094139  -0.006483  -0.008240
      6       0.073116   0.362022   0.121599  -0.348854  -0.051968  -0.040282
      7      -0.174618   0.335219   0.125200  -0.359248  -0.040560   0.051788
      8       0.021236  -0.143702  -0.019456   0.092426   0.010133  -0.001236
      9       0.334909   0.007550   0.011243  -0.142563   0.015993   0.035447
     10       0.080331  -0.108710  -0.387235  -0.120798   0.127721  -0.472851
     11       0.092306  -0.003569   0.020229  -0.046368  -0.005463   0.007686
     12      -0.210948  -0.032574   0.023924   0.008108  -0.058339  -0.294406
     13       0.205397   0.030009   0.024591   0.008352   0.022273   0.291014
     14       0.001271  -0.003640  -0.022845  -0.000311   0.004824   0.000328
     15      -0.036119  -0.125284  -0.387265  -0.116962   0.251161   0.421066
     16      -0.322995  -0.095070   0.000492  -0.145892   0.012838  -0.026604
     17      -0.088043  -0.030555   0.021670  -0.046489  -0.008184  -0.007476
     18       0.197547   0.160027   0.329614   0.175951  -0.280278  -0.298287
     19      -0.070822  -0.246328   0.203144  -0.062919  -0.206423  -0.176689
     20      -0.049473  -0.079350   0.021250  -0.046619  -0.004980  -0.009491
     21       0.027354   0.067325  -0.033261  -0.011245   0.085881   0.060957
     22       0.103748   0.267724   0.008794   0.002942   0.377600   0.146779
     23      -0.003308   0.002035  -0.022792  -0.000273  -0.000884   0.004693
     24      -0.023134  -0.330474   0.193095   0.185024   0.230449  -0.024409
     25      -0.117808  -0.081915  -0.335909  -0.028277  -0.432578  -0.006380
     26       0.017067   0.090928   0.020222  -0.046539   0.008658  -0.003391
     27       0.132878  -0.034422  -0.341456  -0.033617  -0.420911   0.124727
     28       0.123747  -0.310286   0.183407   0.184357   0.216591  -0.035610
     29      -0.043180   0.080938   0.022077  -0.045822   0.011493   0.000348
     30      -0.176782   0.223204   0.010127   0.003226   0.321593  -0.241468
     31      -0.050986   0.062398  -0.032791  -0.011182   0.075154  -0.088801
     32       0.002987   0.002346  -0.022966  -0.000320  -0.003004  -0.003737
     33       0.147381  -0.216965   0.193633  -0.067920  -0.145251   0.215894
     34      -0.232075   0.088761   0.335188   0.174185  -0.192777   0.369533
     35       0.069427  -0.060110   0.021708  -0.045743  -0.002377   0.011028


-----------
IR SPECTRUM
-----------

 Mode   freq       eps      Int      T**2         TX        TY        TZ
       cm**-1   L/(mol*cm) km/mol    a.u.
----------------------------------------------------------------------------
  6:    200.63   0.000032    0.16  0.000050  (-0.005077  0.004959  0.000114)
  7:    201.09   0.000033    0.16  0.000051  (-0.004948 -0.005068  0.000595)
  8:    225.60   0.002496   12.62  0.003453  ( 0.000141 -0.000089  0.058762)
  9:    373.22   0.000000    0.00  0.000000  (-0.000070  0.000085  0.000004)
 10:    406.52   0.000321    1.62  0.000246  (-0.010755  0.011418  0.000036)
 11:    406.59   0.000318    1.61  0.000244  ( 0.011369  0.010706 -0.000094)
 12:    455.98   0.000045    0.23  0.000031  ( 0.000077  0.000039  0.005570)
 13:    473.95   0.000175    0.89  0.000115  (-0.006908 -0.008231 -0.000008)
 14:    474.12   0.000174    0.88  0.000114  ( 0.008187 -0.006869 -0.000032)
 15:    517.59   0.000002    0.01  0.000001  ( 0.000866 -0.000857 -0.000005)
 16:    517.79   0.000002    0.01  0.000001  (-0.000834 -0.000831 -0.000040)
 17:    526.27   0.000000    0.00  0.000000  (-0.000023  0.000013  0.000027)
 18:    536.83   0.000024    0.12  0.000014  (-0.000017 -0.000007 -0.003713)
 19:    576.57   0.002001   10.11  0.001083  (-0.016274  0.028607  0.000084)
 20:    576.66   0.002006   10.14  0.001086  (-0.028626 -0.016313  0.000000)
 21:    629.44   0.000001    0.00  0.000000  (-0.000583  0.000108  0.000022)
 22:    629.45   0.000001    0.00  0.000000  (-0.000015 -0.000567  0.000031)
 23:    691.28   0.000113    0.57  0.000051  ( 0.000005 -0.000019  0.007140)
 24:    829.65   0.000000    0.00  0.000000  ( 0.000029 -0.000008  0.000003)
 25:    931.78   0.010255   51.83  0.003435  ( 0.042724 -0.040115 -0.000144)
 26:    931.80   0.010235   51.72  0.003428  ( 0.040085  0.042673  0.000041)
 27:    973.76   0.003805   19.23  0.001219  ( 0.020763  0.028074  0.000070)
 28:    973.84   0.003797   19.19  0.001217  ( 0.028040 -0.020751 -0.000077)
 29:   1156.11   0.000000    0.00  0.000000  ( 0.000063 -0.000038  0.000001)
 30:   1171.27   0.004928   24.90  0.001313  ( 0.029456 -0.021102 -0.000073)
 31:   1171.32   0.004920   24.87  0.001311  (-0.021068 -0.029445 -0.000057)
 32:   1222.06   0.000071    0.36  0.000018  (-0.000031 -0.000036  0.004265)
 33:   1279.61   0.001637    8.27  0.000399  (-0.000013  0.000042 -0.019980)
 34:   1336.48   0.001440    7.28  0.000336  ( 0.010864  0.014770  0.000042)
 35:   1336.59   0.001441    7.28  0.000336  (-0.014776  0.010869  0.000039)

* The epsilon (eps) is given for a Dirac delta lineshape.
** The dipole moment derivative (T) already includes vibrational overlap.

The first frequency considered to be a vibration is 6
The total number of vibrations considered is 30


--------------------------
THERMOCHEMISTRY AT 298.15K
--------------------------

Temperature         ...   298.15 K
Pressure            ...     1.00 atm
Total Mass          ...   129.72 AMU
Quasi RRHO          ...     True
Cut-Off Frequency   ...     1.00 cm^-1

Throughout the following assumptions are being made:
  (1) The electronic state is orbitally nondegenerate
  (2) There are no thermally accessible electronically excited states
  (3) Hindered rotations indicated by low frequency modes are not
      treated as such but are treated as vibrations and this may
      cause some error
  (4) All equations used are the standard statistical mechanics
      equations for an ideal gas
  (5) All vibrations are strictly harmonic

freq.     200.63  E(vib)   ...       0.35 
freq.     201.09  E(vib)   ...       0.35 
freq.     225.60  E(vib)   ...       0.33 
freq.     373.22  E(vib)   ...       0.21 
freq.     406.52  E(vib)   ...       0.19 
freq.     406.59  E(vib)   ...       0.19 
freq.     455.98  E(vib)   ...       0.16 
freq.     473.95  E(vib)   ...       0.15 
freq.     474.12  E(vib)   ...       0.15 
freq.     517.59  E(vib)   ...       0.13 
freq.     517.79  E(vib)   ...       0.13 
freq.     526.27  E(vib)   ...       0.13 
freq.     536.83  E(vib)   ...       0.12 
freq.     576.57  E(vib)   ...       0.11 
freq.     576.66  E(vib)   ...       0.11 
freq.     629.44  E(vib)   ...       0.09 
freq.     629.45  E(vib)   ...       0.09 
freq.     691.28  E(vib)   ...       0.07 
freq.     829.65  E(vib)   ...       0.04 
freq.     931.78  E(vib)   ...       0.03 
freq.     931.80  E(vib)   ...       0.03 
freq.     973.76  E(vib)   ...       0.03 
freq.     973.84  E(vib)   ...       0.03 
freq.    1156.11  E(vib)   ...       0.01 
freq.    1171.27  E(vib)   ...       0.01 
freq.    1171.32  E(vib)   ...       0.01 
freq.    1222.06  E(vib)   ...       0.01 
freq.    1279.61  E(vib)   ...       0.01 
freq.    1336.48  E(vib)   ...       0.01 
freq.    1336.59  E(vib)   ...       0.01 

------------
INNER ENERGY
------------

The inner energy is: U= E(el) + E(ZPE) + E(vib) + E(rot) + E(trans)
    E(el)   - is the total energy from the electronic structure calculation
              = E(kin-el) + E(nuc-el) + E(el-el) + E(nuc-nuc)
    E(ZPE)  - the the zero temperature vibrational energy from the frequency calculation
    E(vib)  - the the finite temperature correction to E(ZPE) due to population
              of excited vibrational states
    E(rot)  - is the rotational thermal energy
    E(trans)- is the translational thermal energy

Summary of contributions to the inner energy U:
Electronic energy                ...   -297.87421132 Eh
Zero point energy                ...      0.04951343 Eh      31.07 kcal/mol
Thermal vibrational correction   ...      0.00525992 Eh       3.30 kcal/mol
Thermal rotational correction    ...      0.00141627 Eh       0.89 kcal/mol
Thermal translational correction ...      0.00141627 Eh       0.89 kcal/mol
-----------------------------------------------------------------------
Total thermal energy                   -297.81660542 Eh


Summary of corrections to the electronic energy:
(perhaps to be used in another calculation)
Total thermal correction                  0.00809246 Eh       5.08 kcal/mol
Non-thermal (ZPE) correction              0.04951343 Eh      31.07 kcal/mol
-----------------------------------------------------------------------
Total correction                          0.05760589 Eh      36.15 kcal/mol


--------
ENTHALPY
--------

The enthalpy is H = U + kB*T
                kB is Boltzmann's constant
Total thermal energy              ...   -297.81660542 Eh 
Thermal Enthalpy correction       ...      0.00094421 Eh       0.59 kcal/mol
-----------------------------------------------------------------------
Total Enthalpy                    ...   -297.81566121 Eh


Note: Only C1 symmetry has been detected, increase convergence thresholds 
      if your molecule has a higher symmetry. Symmetry factor of 1.0 is   
      used for the rotational entropy correction. 
 

Note: Rotational entropy computed according to Herzberg 
Infrared and Raman Spectra, Chapter V,1, Van Nostrand Reinhold, 1945 
Point Group:  C1, Symmetry Number:   1  
Rotational constants in cm-1:     0.060593     0.060589     0.031058 

Vibrational entropy computed according to the QRRHO of S. Grimme
Chem.Eur.J. 2012 18 9955 using a reference frequency of 100.0 cm-1


-------
ENTROPY
-------

The entropy contributions are T*S = T*(S(el)+S(vib)+S(rot)+S(trans))
     S(el)   - electronic entropy
     S(vib)  - vibrational entropy
     S(rot)  - rotational entropy
     S(trans)- translational entropy
The entropies will be listed as multiplied by the temperature to get
units of energy

Electronic entropy                ...      0.00000000 Eh      0.00 kcal/mol
Vibrational entropy               ...      0.00796396 Eh      5.00 kcal/mol
Rotational entropy                ...      0.01379697 Eh      8.66 kcal/mol
Translational entropy             ...      0.01923977 Eh     12.07 kcal/mol
-----------------------------------------------------------------------
Final entropy term                ...      0.04100070 Eh     25.73 kcal/mol

In case the symmetry of your molecule has not been determined correctly
or in case you have a reason to use a different symmetry number we print 
out the resulting rotational entropy values for sn=1,12:

 non-linear molecules -----------------------------------
|  sn= 1 | S(rot)=       0.01379697 Eh      8.66 kcal/mol|
|  sn= 2 | S(rot)=       0.01314251 Eh      8.25 kcal/mol|
|  sn= 3 | S(rot)=       0.01275968 Eh      8.01 kcal/mol|
|  sn= 4 | S(rot)=       0.01248805 Eh      7.84 kcal/mol|
|  sn= 5 | S(rot)=       0.01227737 Eh      7.70 kcal/mol|
|  sn= 6 | S(rot)=       0.01210522 Eh      7.60 kcal/mol|
|  sn= 7 | S(rot)=       0.01195968 Eh      7.50 kcal/mol|
|  sn= 8 | S(rot)=       0.01183360 Eh      7.43 kcal/mol|
|  sn= 9 | S(rot)=       0.01172239 Eh      7.36 kcal/mol|
|  sn=10 | S(rot)=       0.01162291 Eh      7.29 kcal/mol|
|  sn=11 | S(rot)=       0.01153292 Eh      7.24 kcal/mol|
|  sn=12 | S(rot)=       0.01145077 Eh      7.19 kcal/mol|
 linear molecules ---------------------------------------
|  Dinfh | S(rot)=       0.00860390 Eh      5.40 kcal/mol|
|  Cinfv | S(rot)=       0.00925835 Eh      5.81 kcal/mol|
 --------------------------------------------------------


-------------------
GIBBS FREE ENERGY
-------------------

The Gibbs free energy is G = H - T*S

Total enthalpy                    ...   -297.81566121 Eh 
Total entropy correction          ...     -0.04100070 Eh    -25.73 kcal/mol
-----------------------------------------------------------------------
Final Gibbs free energy         ...   -297.85666191 Eh

For completeness - the Gibbs free energy minus the electronic energy
G-E(el)                           ...      0.01754941 Eh     11.01 kcal/mol


Maximum memory used throughout the entire PROP-calculation: 94.8 MB

--------------------------------
SUGGESTED CITATIONS FOR THIS RUN
--------------------------------

Below you find a list of papers that are relevant to this ORCA run
We neither can nor want to force you to cite these papers, but we appreciate if you do
You receive ORCA, which is the product of decades of hard work by many enthusiastic individuals, for free
The only thing we kindly ask in return is that you cite our papers,
We deeply appreciate it, if you show your appreciation for ORCA by not just citing the generic ORCA reference.

Please note that relegating all ORCA citations to the supporting information does *not* help us.
SI sections are not indexed - citations you put there will not count into any citation statistics
But we need these citations in order to attract the funding resources that allow us to do what we are doing

Therefore, if you are a happy ORCA user, please consider citing a few of the papers listed below in the main body of your paper

In addition to the list printed below, the program has created the file rank04_quasi_planar_nn3.00.bibtex that contains the list in bibtex format
You can import this file easily into all common literature databanks and citation aid programs

It goes without saying that in many instances, there are alternative algorithms to achieve similar
results as the ones you have gotten from ORCA. It is, of course, also the case that in some instances
ORCA just re-implements algorithms worked out by others. We are fully aware of that and we are also
fully appreciative of our colleagues work. Hence this citation list should not be read as indicating
that the listed papers, which are focused on our own work, are the only ones worth citing. It simply
meant to make it easier for users to cite ORCA specific papers. It is not a substitute for doing your
own literature research and citing the relevant literature in a scientifically appropriate manner.

List of essential papers. We consider these as the minimum necessary citations

  1. Neese, F.
     Software update: the ORCA program system, version 6.0
     WIRES Comput. Molec. Sci. 2025 15(1), e70019
     doi.org/10.1002/wcms.70019

List of papers to cite with high priority. The work reported in these papers was absolutely
necessary for this run to complete.
Our perspective: the developers of density functionals and basis sets usually get cited in chemistry papers
Good! But without the algorithms to do something with them, the functionals or basis sets would not do anything.
Hence, in our opinion, the algorithm design and method developments papers are equally worthy of getting cited

  1. Neese, F.
     An improvement of the resolution of the identity approximation for the formation of the Coulomb matrix
     J. Comp. Chem. 2003 24(14), 1740-1747
     doi.org/10.1002/jcc.10318
  2. Neese, F.; Wennmohs, F.; Hansen, A.; Becker, U.
     Efficient, approximate and parallel Hartree-Fock and hybrid DFT calculations. A 'chain-of-spheres' algorithm for the Hartree-Fock exchange
     Chem. Phys. 2009 356(1-3), 98-109
     doi.org/10.1016/j.chemphys.2008.10.036
  3. Grimme, S.; Antony, J.; Ehrlich, S.; Krieg, H.
     A consistent and accurate ab initio parametrization of density functional dispersion correction (DFT-D) for the 94 elements H-Pu
     J. Chem. Phys. 2010 132 , 154104
     doi.org/10.1063/1.3382344
  4. Grimme, S.; Ehrlich, S.; Goerigk, L.
     Effect of the damping function in dispersion corrected density functional theory
     J. Comput. Chem. 2011 32(7), 1456-1465
     doi.org/10.1002/jcc.21759
  5. Bykov, D.; Petrenko, T.; Izsak, R.; Kossmann, S.; Becker, U.; Valeev, E.; Neese, F.
     Efficient implementation of the analytic second derivatives of Hartree-Fock and hybrid DFT energies: a detailed analysis of different approximations
     Molec. Phys. 2015 113 , 1961-1977
     doi.org/10.1080/00268976.2015.1025114
  6. Helmich-Paris, B.; de Souza, B.; Neese, F.; Izsák, R.
     An improved chain of spheres for exchange algorithm
     J. Chem. Phys. 2021 155(10), 104109
     doi.org/10.1063/5.0058766
  7. Neese, F.
     The SHARK Integral Generation and Digestion System
     J. Comp. Chem. 2022 44(3), 381
     doi.org/10.1002/jcc.26942

List of suggested additional citations. These are papers that are important in the 'surrounding' of 
of this run, or papers that preceded the highly important papers. If you like your results we are grateful for a citation.

  1. Izsak, R.; Neese, F.
     An overlap fitted chain of spheres exchange method
     J. Chem. Phys. 2011 135 , 144105
     doi.org/10.1063/1.3646921
  2. Izsak, R.; Hansen, A.; Neese, F.
     The resolution of identity and chain of spheres approximations for the LPNO-CCSD singles Fock term
     Molec. Phys. 2012 110 , 2413-2417
     doi.org/10.1080/00268976.2012.687466
  3. Neese, F.
     The ORCA program system
     WIRES Comput. Molec. Sci. 2012 2(1), 73-78
     doi.org/10.1002/wcms.81
  4. Izsak, R.; Neese, F.; Klopper, W.
     Robust fitting techniques in the chain of spheres approximation to the Fock exchange: The role of the complementary space
     J. Chem. Phys. 2013 139 , 
     doi.org/10.1063/1.4819264
  5. Neese, F.
     Software update: the ORCA program system, version 4.0
     WIRES Comput. Molec. Sci. 2018 8(1), 1-6
     doi.org/10.1002/wcms.1327
  6. Neese, F.; Wennmohs, F.; Becker, U.; Riplinger, C.
     The ORCA quantum chemistry program package
     J. Chem. Phys. 2020 152(22), 224108
     doi.org/10.1063/5.0004608
  7. Neese, F.
     Software update: The ORCA program system—Version 5.0
     WIRES Comput. Molec. Sci. 2022 12(1), e1606
     doi.org/10.1002/wcms.1606

List of optional additional citations

  1. Neese, F.
     Approximate second-order SCF convergence for spin unrestricted wavefunctions
     Chem. Phys. Lett. 2000 325(1-3), 93-98
     doi.org/10.1016/s0009-2614(00)00662-x

Timings for individual modules:

Sum of individual times          ...     1097.382 sec (=  18.290 min)
Startup calculation              ...       17.827 sec (=   0.297 min)   1.6 %
SCF iterations                   ...      261.198 sec (=   4.353 min)  23.8 %
Property integrals               ...      125.309 sec (=   2.088 min)  11.4 %
SCF Response                     ...      101.548 sec (=   1.692 min)   9.3 %
Property calculations            ...      428.589 sec (=   7.143 min)  39.1 %
SCF Gradient evaluation          ...      162.739 sec (=   2.712 min)  14.8 %
Geometry relaxation              ...        0.172 sec (=   0.003 min)   0.0 %
                             ****ORCA TERMINATED NORMALLY****
TOTAL RUN TIME: 0 days 0 hours 18 minutes 22 seconds 587 msec
