
                                 *****************
                                 * O   R   C   A *
                                 *****************

                                            #,                                       
                                            ###                                      
                                            ####                                     
                                            #####                                    
                                            ######                                   
                                           ########,                                 
                                     ,,################,,,,,                         
                               ,,#################################,,                 
                          ,,##########################################,,             
                       ,#########################################, ''#####,          
                    ,#############################################,,   '####,        
                  ,##################################################,,,,####,       
                ,###########''''           ''''###############################       
              ,#####''   ,,,,##########,,,,          '''####'''          '####       
            ,##' ,,,,###########################,,,                        '##       
           ' ,,###''''                  '''############,,,                           
         ,,##''                                '''############,,,,        ,,,,,,###''
      ,#''                                            '''#######################'''  
     '                                                          ''''####''''         
             ,#######,   #######,   ,#######,      ##                                
            ,#'     '#,  ##    ##  ,#'     '#,    #''#        ,####,    ,#,          
            ##       ##  ##   ,#'  ##            #'  '#       #'       ,# #          
            ##       ##  #######   ##           ,######,      #####,      #          
            '#,     ,#'  ##    ##  '#,     ,#' ,#      #,     #,   #      #          
             '#######'   ##     ##  '#######'  #'      '#     '####' #    #          



                #########################################################
                #                        -***-                          #
                #          Department of theory and spectroscopy        #
                #                                                       #
                #                      Frank Neese                      #
                #                                                       #
                #     Directorship, Architecture, Infrastructure        #
                #                    SHARK, DRIVERS                     #
                #        Core code/Algorithms in most modules           #
                #                                                       #
                #        Max Planck Institute fuer Kohlenforschung      #
                #                Kaiser Wilhelm Platz 1                 #
                #                 D-45470 Muelheim/Ruhr                 #
                #                      Germany                          #
                #                                                       #
                #                  All rights reserved                  #
                #                        -***-                          #
                #########################################################


                         Program Version 6.1.1  -  RELEASE   -
                                (GIT: $487d211c$)
                          ($2025-11-21 10:33:24 +0100$)
                                                                         
                                  - NO-DMRG VERSION -                    
                                                                         


 With contributions from (in alphabetic order):
[Max-Planck-Institut fuer Kohlenforschung]                               
  Daniel Aravena         : Magnetic Suceptibility                        
  Michael Atanasov       : Ab Initio Ligand Field Theory (pilot matlab implementation)
  Alexander A. Auer      : GIAO ZORA, VPT2 properties, NMR spectrum      
  Ute Becker             : All parallelization in ORCA, NUMFREQ, NUMCALC 
  Giovanni Bistoni       : ED, misc. LED, open-shell LED, HFLD           
  Dmytro Bykov           : pre 5.0 version of the SCF Hessian            
  Marcos Casanova-Páez   : Triplet and SCS-CIS(D). UHF-(DLPNO)-IP/EA/STEOM-CCSD. UHF-CVS-IP/STEOM-CCSD   
  Vijay G. Chilkuri      : MRCI spin determinant printing, contributions to CSF-ICE 
  Pauline Colinet        : FMM embedding                                 
  Dipayan Datta          : RHF DLPNO-CCSD density                        
  Achintya Kumar Dutta   : EOM-CC, STEOM-CC                              
  Nicolas Foglia         : Exact transition moments, OPA infrastructure, MCD improvements    
  Dmitry Ganyushin       : Spin-Orbit,Spin-Spin,Magnetic field MRCI      
  Miquel Garcia-Rates    : C-PCM and meta-GGA Hessian, CCSD/C-PCM, Gaussian charge scheme 
  Tiago L. C. Gouveia    : GS-ROHF, GS-ROCIS                             
  Yang Guo               : DLPNO-NEVPT2, F12-NEVPT2, CIM, IAO-localization        
  Andreas Hansen         : Spin unrestricted coupled pair/coupled cluster methods 
  Ingolf Harden          : AUTO-CI MPn and infrastructure                
  Benjamin Helmich-Paris : MC-RPA, TRAH-(SCF,CASSCF), AVAS, COSX integrals, SCF dyn. polar., MC-PDFT, srDFT 
  Lee Huntington         : MR-EOM, pCC                                   
  Robert Izsak           : Overlap fitted RIJCOSX, COSX-SCS-MP3, EOM     
  Riya Kayal             : Wick's Theorem for AUTO-CI, AUTO-CI UHF-CCSDT 
  Emily Kempfer          : AUTO-CI RHF CISDT and CCSDT, approximate NEVPT4
  Christian Kollmar      : KDIIS, OOCD, Brueckner-CCSD(T), CCSD density, CASPT2, CASPT2-K, improved NEVPT2 
  Axel Koslowski         : Symmetry handling                             
  Simone Kossmann        : meta-GGA functionals, TD-DFT gradient, OOMP2, (MP2 Hessian; deprecated post 5.0) 
  Lucas Lang             : DCDCAS, Hyperfine gauge corrections, ICE-SOC+SSC
  Marvin Lechner         : AUTO-CI (C++ implementation), FIC-MRCC        
  Spencer Leger          : CASSCF response                               
  Dagmar Lenk            : GEPOL surface, SMD, ORCA-2-JSON               
  Dimitrios Liakos       : Extrapolation schemes; Compound Job, Property file
  Dimitrios Manganas     : Further ROCIS development; embedding schemes. LFT, Crystal Embedding 
  Dimitrios Pantazis     : SARC Basis sets                               
  Anastasios Papadopoulos: AUTO-CI, single reference methods and gradients 
  Taras Petrenko         : pre 6.0 DFT Hessian and TD-DFT gradient,  ECA, NRVS 
  Petra Pikulova         : Analytic Raman intensities                    
  Peter Pinski           : DLPNO-MP2, DLPNO-MP2 Gradient                 
  Shashank Vittal Rao    : ES-AILFT, MagRelax                            
  Christoph Reimann      : Effective Core Potentials                     
  Marius Retegan         : Local ZFS, SOC                                
  Christoph Riplinger    : Optimizer, TS searches, QM/MM, DLPNO-CCSD(T), (RO)-DLPNO pert. Triples 
  Michael Roemelt        : Original ROCIS implementation, recursive CI coupling coefficients
  Masaaki Saitow         : Open-shell DLPNO-CCSD energy and density      
  Barbara Sandhoefer     : DKH picture change effects                    
  Yorick L. A. Schmerwitz: GMF and freeze-and-release deltaSCF, NEB S-IDPP initial path                    
  Kantharuban Sivalingam : CASSCF convergence/infrastructure, NEVPT2, NEVPT3, NEVPT4(SD), FIC-MRCI and CEPA variants
  Bernardo de Souza      : ESD, SOC TD-DFT                               
  Georgi L. Stoychev     : AutoAux, RI-MP2 NMR, DLPNO-MP2 response, X2C  
  Van Anh Tran           : RI-MP2 g-tensors                              
  Willem Van den Heuvel  : Paramagnetic NMR                              
  Zikuan Wang            : NOTCH, Electric field optimization            
  Frank Wennmohs         : Technical directorship and infrastructure     
  Hang Xu                : AUTO-CI-Response properties                   
                                                                         
[FACCTs GmbH]                                                            
  Markus Bursch, Nicolas Foglia, Miquel Garcia-Rates, Ingolf Harden, Hagen Neugebauer, Anastasios Papadopoulos, 
  Christoph Riplinger, Bernardo de Souza, Georgi L. Stoychev                                                    
                                                                 
  APM, various basis sets, CI-OPT, improved COSX, DLPNO-Multilevel,           
  DOCKER, DRACO, updates on ESD, Fragmentator, GOAT, IRC, LR-CPCM, L-BFGS, MBIS, meta-GGA TD-DFT gradient, ML-optimized integration grids, 
  MM, NACMEs, nearIR, NEB, NEB-TS, NL-DFT gradient (VV10), 2- and 3-layer-ONIOM, interface openCOSMO-RS, QMMM,   
  Crystal-QMMM, RESP, rigid body optimization, SF, symmetry and pop. for TD-DFT, various functionals, SOLVATOR                                   
                                                                         
[Other institutions]                                                     
  V. Asgeirsson          : NEB                                           
  Christoph Bannwarth    : sTDA-DFT, sTD-DFT, PBEh-3c, B97-3c, D3        
  Giovanni Bistoni       : ETS/NOCV, ADLD/ADEX, COVALED                  
  Martin Brehm           : Molecular dynamics                            
  Ronald Cardenas        : ETS/NOCV                                      
  Martina Colucci        : COVALED                                       
  Sebastian Ehlert       : rSCAN, r2SCAN, r2SCAN-3c, D4, dhf basis sets  
  Marvin Friede          : D4 for Fr, Ra, Ac-Lr                          
  Lars Goerigk           : TD-DFT with DH, B97 family of functionals     
  Stefan Grimme          : VdW corrections, initial TS optimization, DFT functionals, gCP, sTDA/sTD-DF 
  Waldemar Hujo          : DFT-NL                                        
  H. Jonsson             : NEB                                           
  Holger Kruse           : gCP                                           
  Marcel Mueller         : wB97X-3c, vDZP basis set                      
  Hagen Neugebauer       : wr2SCAN, Native XTB                           
  Gianluca Regni         : ADLD/ADEX                                     
  Tobias Risthaus        : pre 6.0 range-separated hybrid DFT and stability analysis
  Lukas Wittmann         : regularized MP2, r2SCAN double-hybrids, wr2SCAN        
                                                                         
We gratefully acknowledge several colleagues who have allowed us to      
interface, adapt or use parts of their codes:                            
  Ed Valeev, F. Pavosevic, A. Kumar             : LibInt (2-el integral package), F12 methods 
  Garnet Chan, S. Sharma, J. Yang, R. Olivares  : DMRG                   
  Ulf Ekstrom                                   : XCFun DFT Library      
  Mihaly Kallay                                 : mrcc  (arbitrary order and MRCC methods)
  Frank Weinhold                                : gennbo (NPA and NBO analysis)           
  Simon Mueller                                 : openCOSMO-RS                            
  Christopher J. Cramer and Donald G. Truhlar   : smd solvation model                     
  S Lehtola, MJT Oliveira, MAL Marques          : LibXC Library                           
  Liviu Ungur et al                             : ANISO software                          


 Your calculation uses the libint2 library for the computation of 2-el integrals
 For citations please refer to: http://libint.valeyev.net

 Your ORCA version has been built with support for libXC version: 7.0.0
 For citations please refer to: https://libxc.gitlab.io

 This ORCA versions uses:
   CBLAS   interface :  Fast vector & matrix operations
   LAPACKE interface :  Fast linear algebra routines
   SCALAPACK package :  Parallel linear algebra routines
   Shared memory     :  Shared parallel matrices
   BLAS/LAPACK       :  OpenBLAS 0.3.29  USE64BITINT DYNAMIC_ARCH NO_AFFINITY Zen SINGLE_THREADED
        Core in use  :  Zen
   Copyright (c) 2011-2014, The OpenBLAS Project


  ***********************************
  * Starting time: Thu Apr 23 20:04:56 2026
  * Host name:     vmi3233575
  * Process ID:    1454553
  * Working dir.:  /root/b12_scan/jobs/quasi_planar_nn2.00_perturb0
  ***********************************

NOTE: MaxCore=2500 MB was set to SCF,MP2,MDCI,CIPSI,MRCI,RASCI and CIS
      => If you want to overwrite this, your respective input block should be placed after the MaxCore statement
Your calculation utilizes the atom-pairwise dispersion correction
with the Becke-Johnson damping scheme (D3BJ)


================================================================================

----- Orbital basis set information -----
Your calculation utilizes the basis: def2-SVP
   F. Weigend and R. Ahlrichs, Phys. Chem. Chem. Phys. 7, 3297 (2005).

----- AuxJ basis set information -----
Your calculation utilizes the auxiliary basis: def2/J
   H-Rn: F. Weigend, Phys. Chem. Chem. Phys. 8, 1057 (2006).
   Fr-Lr: K. Eichkorn, F. Weigend, O. Treutler, R. Ahlrichs; Theor. Chem. Acc. 97, 119 (1997).

================================================================================
                                        WARNINGS
                       Please study these warnings very carefully!
================================================================================


WARNING: Geometry Optimization
  ===> : Switching off AutoStart
         For restart on a previous wavefunction, please use MOREAD

================================================================================
                                       INPUT FILE
================================================================================
NAME = quasi_planar_nn2.00_perturb0.inp
|  1> ! BP86 def2-SVP def2/J RI Opt TightSCF D3BJ
|  2> ! SlowConv
|  3> 
|  4> %pal nprocs 8 end
|  5> %maxcore 2500
|  6> 
|  7> %geom
|  8>   MaxIter 300
|  9> end
| 10> 
| 11> * xyz 0 1
| 12> B      1.17356007     -0.01981573      0.41098173
| 13> B     -0.56161525      0.91964959      0.36915759
| 14> B     -0.38175026     -0.85793786      0.20935804
| 15> B      3.46587901      0.27330151     -0.09877388
| 16> B      2.21589832      2.59799442     -0.29185942
| 17> B      0.16374391      3.58220809     -0.15241780
| 18> B     -2.08375332      3.13890301     -0.12425298
| 19> B     -3.35570798      0.80586880     -0.05224627
| 20> B     -3.17425600     -1.58089091     -0.21649766
| 21> B     -1.64845314     -3.41797756     -0.07194351
| 22> B      0.84458184     -3.56783751     -0.12885653
| 23> B      3.11731935     -2.03665531     -0.05166687
| 24> *
| 25> 
| 26>                          ****END OF INPUT****
================================================================================

                       *****************************
                       * Geometry Optimization Run *
                       *****************************

Geometry optimization settings:
Update method            Update   .... BFGS
Choice of coordinates    CoordSys .... (2022) Redundant Internals
Initial Hessian          InHess   .... Almloef's Model
Max. no of cycles        MaxIter  .... 300

Convergence Tolerances:
Energy Change            TolE     ....  5.0000e-06 Eh
Max. Gradient            TolMAXG  ....  3.0000e-04 Eh/bohr
RMS Gradient             TolRMSG  ....  1.0000e-04 Eh/bohr
Max. Displacement        TolMAXD  ....  4.0000e-03 bohr
RMS Displacement         TolRMSD  ....  2.0000e-03 bohr
Strict Convergence                .... False

------------------------------------------------------------------------------
                        ORCA OPTIMIZATION COORDINATE SETUP
------------------------------------------------------------------------------

The optimization will be done in redundant internal coordinates (2022)
Making redundant internal coordinates   ...  (2022 redundants) done
Evaluating the initial hessian          ...  (Almloef) done
Evaluating the coordinates              ...  done
Calculating the B-matrix                .... done
Calculating the G-matrix                .... done
The number of degrees of freedom        ....  238

    -----------------------------------------------------------------
                    Redundant Internal Coordinates


    -----------------------------------------------------------------
         Definition                    Initial Value    Approx d2E/dq
    -----------------------------------------------------------------
      1. B(B   1,B   0)                  1.9736         0.098230   
      2. B(B   2,B   1)                  1.7938         0.190170   
      3. B(B   2,B   0)                  1.7782         0.201364   
      4. B(B   3,B   0)                  2.3665         0.023194   
      5. B(B   4,B   3)                  2.6465         0.010000   
      6. B(B   4,B   1)                  3.3119         0.010000   
      7. B(B   4,B   0)                  2.9040         0.010000   
      8. B(B   5,B   1)                  2.8085         0.010000   
      9. B(B   5,B   4)                  2.2802         0.031847   
     10. B(B   6,B   5)                  2.2910         0.030615   
     11. B(B   6,B   1)                  2.7360         0.010000   
     12. B(B   7,B   1)                  2.8280         0.010000   
     13. B(B   7,B   6)                  2.6582         0.010000   
     14. B(B   7,B   2)                  3.4178         0.010000   
     15. B(B   8,B   2)                  2.9158         0.010000   
     16. B(B   8,B   7)                  2.3993         0.020565   
     17. B(B   9,B   2)                  2.8701         0.010000   
     18. B(B   9,B   8)                  2.3925         0.021087   
     19. B(B  10,B   2)                  2.9936         0.010000   
     20. B(B  10,B   9)                  2.4982         0.014300   
     21. B(B  11,B   0)                  2.8390         0.010000   
     22. B(B  11,B  10)                  2.7415         0.010000   
     23. B(B  11,B   3)                  2.3366         0.025892   
     24. A(B   1,B   0,B   4)           83.1852         0.161143   
     25. A(B   3,B   0,B   4)           59.2392         0.141037   
     26. A(B   2,B   0,B   4)          135.3459         0.173870   
     27. A(B   2,B   0,B  11)          104.2130         0.178585   
     28. A(B   1,B   0,B   3)          142.0072         0.201794   
     29. A(B   1,B   0,B   2)           56.8374         0.272962   
     30. A(B   1,B   0,B  11)          159.4971         0.165151   
     31. A(B   3,B   0,B  11)           52.3884         0.143928   
     32. A(B   4,B   0,B  11)          110.8059         0.124132   
     33. A(B   2,B   0,B   3)          151.7833         0.221692   
     34. A(B   2,B   1,B   5)          153.7721         0.179707   
     35. A(B   4,B   1,B   6)           91.1189         0.116267   
     36. A(B   4,B   1,B   5)           42.7673         0.114672   
     37. A(B   0,B   1,B   6)          151.5299         0.171963   
     38. A(B   0,B   1,B   4)           60.5359         0.140396   
     39. A(B   0,B   1,B   5)          103.1879         0.167110   
     40. A(B   2,B   1,B   4)          113.5980         0.148685   
     41. A(B   5,B   1,B   6)           48.7910         0.130440   
     42. A(B   2,B   1,B   7)           92.6322         0.178246   
     43. A(B   6,B   1,B   7)           57.0493         0.129773   
     44. A(B   5,B   1,B   7)          105.4057         0.127388   
     45. A(B   0,B   1,B   2)           56.0839         0.270596   
     46. A(B   2,B   1,B   6)          147.5152         0.185344   
     47. A(B   4,B   1,B   7)          145.0104         0.114259   
     48. A(B   0,B   1,B   7)          148.5015         0.165852   
     49. A(B   7,B   2,B   8)           43.6291         0.110500   
     50. A(B   1,B   2,B   9)          148.0366         0.175175   
     51. A(B   0,B   2,B   9)          144.8391         0.176298   
     52. A(B   8,B   2,B   9)           48.8413         0.122900   
     53. A(B   0,B   2,B   1)           67.0787         0.302631   
     54. A(B   1,B   2,B   8)           99.3626         0.171959   
     55. A(B   0,B   2,B   8)          166.1837         0.173040   
     56. A(B   7,B   2,B   9)           92.4464         0.111333   
     57. A(B   1,B   2,B   7)           55.7473         0.143653   
     58. A(B   0,B   2,B   7)          122.7040         0.144365   
     59. A(B   9,B   2,B  10)           50.3790         0.120777   
     60. A(B   8,B   2,B  10)           98.7068         0.119591   
     61. A(B   7,B   2,B  10)          142.0434         0.109153   
     62. A(B   1,B   2,B  10)          161.4744         0.166763   
     63. A(B   0,B   2,B  10)           94.6558         0.167776   
     64. A(B   0,B   3,B  11)           74.2591         0.172410   
     65. A(B   4,B   3,B  11)          143.0737         0.155088   
     66. A(B   0,B   3,B   4)           70.5497         0.153462   
     67. A(B   1,B   4,B   5)           56.7535         0.128830   
     68. A(B   0,B   4,B   5)           92.9383         0.144908   
     69. A(B   3,B   4,B   5)          143.1068         0.158258   
     70. A(B   0,B   4,B   1)           36.2789         0.112711   
     71. A(B   1,B   4,B   3)           86.3536         0.118373   
     72. A(B   0,B   4,B   3)           50.2112         0.130230   
     73. A(B   1,B   5,B   6)           63.9530         0.148994   
     74. A(B   4,B   5,B   6)          143.1424         0.182079   
     75. A(B   1,B   5,B   4)           80.4792         0.149532   
     76. A(B   1,B   6,B   7)           63.2184         0.135954   
     77. A(B   5,B   6,B   7)          129.7607         0.156977   
     78. A(B   1,B   6,B   5)           67.2560         0.152722   
     79. A(B   2,B   7,B   8)           56.9863         0.122035   
     80. A(B   1,B   7,B   8)           88.5963         0.142945   
     81. A(B   6,B   7,B   8)          146.6209         0.151123   
     82. A(B   1,B   7,B   2)           31.6205         0.112129   
     83. A(B   2,B   7,B   6)           90.7430         0.115636   
     84. A(B   1,B   7,B   6)           59.7323         0.132495   
     85. A(B   2,B   8,B   9)           64.5819         0.139429   
     86. A(B   7,B   8,B   9)          143.8967         0.166485   
     87. A(B   2,B   8,B   7)           79.3846         0.139144   
     88. A(B   2,B   9,B  10)           67.3752         0.136976   
     89. A(B   8,B   9,B  10)          132.9318         0.160368   
     90. A(B   2,B   9,B   8)           66.5767         0.141384   
     91. A(B   2,B  10,B  11)           80.2609         0.124363   
     92. A(B   2,B  10,B   9)           62.2459         0.132293   
     93. A(B   9,B  10,B  11)          142.4817         0.142390   
     94. A(B   0,B  11,B   3)           53.3524         0.145313   
     95. A(B   0,B  11,B  10)           80.4312         0.129215   
     96. A(B   3,B  11,B  10)          132.4741         0.150068   
     97. D(B   5,B   1,B   0,B  11)   -137.8207         0.010000   
     98. D(B   2,B   1,B   0,B   3)    150.8573         0.010000   
     99. D(B   5,B   1,B   0,B   2)   -162.3050         0.010000   
    100. D(B   2,B   1,B   0,B   4)    159.0528         0.010000   
    101. D(B   4,B   1,B   0,B   2)   -159.0528         0.010000   
    102. D(B   2,B   1,B   0,B  11)     24.4842         0.010000   
    103. D(B   5,B   1,B   0,B   3)    -11.4477         0.010000   
    104. D(B   4,B   1,B   0,B  11)   -134.5685         0.010000   
    105. D(B   4,B   1,B   0,B   3)     -8.1955         0.010000   
    106. D(B   7,B   2,B   0,B   3)   -136.7912         0.010000   
    107. D(B   8,B   2,B   0,B   1)     11.5276         0.010000   
    108. D(B   8,B   2,B   0,B   3)   -129.1249         0.010000   
    109. D(B   8,B   2,B   1,B   4)   -157.3706         0.010000   
    110. D(B   7,B   2,B   1,B   4)   -156.2120         0.010000   
    111. D(B   8,B   2,B   1,B   0)   -177.2277         0.010000   
    112. D(B   7,B   2,B   0,B   4)    -26.4754         0.010000   
    113. D(B   0,B   2,B   1,B   7)    176.0690         0.010000   
    114. D(B   7,B   2,B   0,B   1)      3.8612         0.010000   
    115. D(B   1,B   2,B   0,B  11)   -171.3879         0.010000   
    116. D(B   7,B   2,B   1,B   0)   -176.0690         0.010000   
    117. D(B   1,B   2,B   0,B   4)    -30.3366         0.010000   
    118. D(B   0,B   2,B   1,B   6)    156.3917         0.010000   
    119. D(B   7,B   2,B   1,B   6)    -19.6773         0.010000   
    120. D(B   1,B   2,B   0,B   3)   -140.6525         0.010000   
    121. D(B   7,B   2,B   0,B  11)   -167.5266         0.010000   
    122. D(B   7,B   2,B   1,B   5)   -134.0311         0.010000   
    123. D(B   0,B   2,B   1,B   5)     42.0379         0.010000   
    124. D(B   0,B   2,B   1,B   4)     19.8570         0.010000   
    125. D(B   4,B   3,B   0,B   2)    129.9133         0.010000   
    126. D(B  11,B   3,B   0,B   4)   -168.6257         0.010000   
    127. D(B  11,B   3,B   0,B   1)   -159.1449         0.010000   
    128. D(B  11,B   3,B   0,B   2)    -38.7124         0.010000   
    129. D(B   4,B   3,B   0,B  11)    168.6257         0.010000   
    130. D(B   4,B   3,B   0,B   1)      9.4809         0.010000   
    131. D(B   1,B   4,B   3,B  11)     14.9472         0.010000   
    132. D(B   5,B   4,B   3,B  11)     15.1650         0.010000   
    133. D(B   0,B   4,B   1,B   6)   -177.2032         0.010000   
    134. D(B   0,B   4,B   1,B   5)    175.3341         0.010000   
    135. D(B   5,B   4,B   3,B   0)     -3.2534         0.010000   
    136. D(B   3,B   4,B   1,B   5)    179.8437         0.010000   
    137. D(B   3,B   4,B   1,B   2)    -14.3805         0.010000   
    138. D(B   3,B   4,B   1,B   6)   -172.6937         0.010000   
    139. D(B   3,B   4,B   1,B   0)      4.5096         0.010000   
    140. D(B   3,B   4,B   1,B   7)   -149.7391         0.010000   
    141. D(B   5,B   4,B   0,B   1)      3.9060         0.010000   
    142. D(B   1,B   4,B   0,B  11)    164.5182         0.010000   
    143. D(B   0,B   4,B   1,B   2)    -18.8901         0.010000   
    144. D(B   1,B   4,B   0,B   3)    174.1390         0.010000   
    145. D(B   0,B   4,B   3,B  11)     18.4184         0.010000   
    146. D(B   1,B   4,B   3,B   0)     -3.4712         0.010000   
    147. D(B   1,B   4,B   0,B   2)     25.2026         0.010000   
    148. D(B   3,B   4,B   0,B   2)   -148.9363         0.010000   
    149. D(B   3,B   4,B   0,B   1)   -174.1390         0.010000   
    150. D(B   3,B   4,B   0,B  11)     -9.6208         0.010000   
    151. D(B   1,B   5,B   4,B   3)     -0.2598         0.010000   
    152. D(B   6,B   5,B   1,B   4)    170.0605         0.010000   
    153. D(B   6,B   5,B   1,B   2)    139.4301         0.010000   
    154. D(B   4,B   5,B   1,B   7)   -162.4738         0.010000   
    155. D(B   4,B   5,B   1,B   6)   -170.0605         0.010000   
    156. D(B   6,B   5,B   1,B   0)    174.2321         0.010000   
    157. D(B   1,B   5,B   4,B   0)     -2.7625         0.010000   
    158. D(B   4,B   5,B   1,B   2)    -30.6304         0.010000   
    159. D(B   4,B   5,B   1,B   0)      4.1715         0.010000   
    160. D(B   6,B   5,B   4,B   1)    -14.9831         0.010000   
    161. D(B   6,B   5,B   4,B   0)    -17.7457         0.010000   
    162. D(B   6,B   5,B   4,B   3)    -15.2429         0.010000   
    163. D(B   7,B   6,B   5,B   1)    -10.1457         0.010000   
    164. D(B   1,B   6,B   5,B   4)     16.4870         0.010000   
    165. D(B   7,B   6,B   1,B   4)    164.5434         0.010000   
    166. D(B   7,B   6,B   1,B   2)     23.6312         0.010000   
    167. D(B   5,B   6,B   1,B   7)   -171.2755         0.010000   
    168. D(B   5,B   6,B   1,B   2)   -147.6443         0.010000   
    169. D(B   5,B   6,B   1,B   4)     -6.7321         0.010000   
    170. D(B   7,B   6,B   5,B   4)      6.3413         0.010000   
    171. D(B   5,B   6,B   1,B   0)    -11.8450         0.010000   
    172. D(B   7,B   6,B   1,B   0)    159.4306         0.010000   
    173. D(B   8,B   7,B   6,B   1)    -20.3924         0.010000   
    174. D(B   8,B   7,B   6,B   5)     -9.9076         0.010000   
    175. D(B   2,B   7,B   6,B   5)      3.9965         0.010000   
    176. D(B   1,B   7,B   6,B   5)     10.4848         0.010000   
    177. D(B   1,B   7,B   2,B   9)    176.6070         0.010000   
    178. D(B   1,B   7,B   2,B   0)     -4.3034         0.010000   
    179. D(B   6,B   7,B   2,B  10)   -162.0824         0.010000   
    180. D(B   6,B   7,B   2,B   9)   -172.6648         0.010000   
    181. D(B   6,B   7,B   2,B   8)   -170.9288         0.010000   
    182. D(B   6,B   7,B   2,B   1)     10.7282         0.010000   
    183. D(B   6,B   7,B   2,B   0)      6.4248         0.010000   
    184. D(B   2,B   7,B   1,B   6)    167.5544         0.010000   
    185. D(B   2,B   7,B   1,B   5)    160.7566         0.010000   
    186. D(B   1,B   7,B   2,B   8)    178.3430         0.010000   
    187. D(B   2,B   7,B   1,B   4)    139.8652         0.010000   
    188. D(B   2,B   7,B   1,B   0)      6.2512         0.010000   
    189. D(B   6,B   7,B   1,B   5)     -6.7978         0.010000   
    190. D(B   2,B   7,B   6,B   1)     -6.4883         0.010000   
    191. D(B   6,B   7,B   1,B   4)    -27.6891         0.010000   
    192. D(B   6,B   7,B   1,B   2)   -167.5544         0.010000   
    193. D(B   6,B   7,B   1,B   0)   -161.3032         0.010000   
    194. D(B   9,B   8,B   7,B   2)      3.5329         0.010000   
    195. D(B   9,B   8,B   7,B   1)      2.6640         0.010000   
    196. D(B   2,B   8,B   7,B   1)     -0.8689         0.010000   
    197. D(B   2,B   8,B   7,B   6)     16.6510         0.010000   
    198. D(B   9,B   8,B   2,B   7)   -177.6960         0.010000   
    199. D(B   9,B   8,B   2,B   1)   -176.3080         0.010000   
    200. D(B   9,B   8,B   2,B   0)    172.9408         0.010000   
    201. D(B   7,B   8,B   2,B  10)   -174.5089         0.010000   
    202. D(B   9,B   8,B   7,B   6)     20.1839         0.010000   
    203. D(B   7,B   8,B   2,B   9)    177.6960         0.010000   
    204. D(B   7,B   8,B   2,B   1)      1.3880         0.010000   
    205. D(B   7,B   8,B   2,B   0)     -9.3632         0.010000   
    206. D(B  10,B   9,B   8,B   7)    -16.5203         0.010000   
    207. D(B   2,B   9,B   8,B   7)     -3.8450         0.010000   
    208. D(B  10,B   9,B   2,B   7)    171.5676         0.010000   
    209. D(B  10,B   9,B   2,B   1)    176.8699         0.010000   
    210. D(B  10,B   9,B   2,B   0)     -7.1022         0.010000   
    211. D(B   8,B   9,B   2,B  10)   -169.9766         0.010000   
    212. D(B   8,B   9,B   2,B   7)      1.5910         0.010000   
    213. D(B   8,B   9,B   2,B   1)      6.8933         0.010000   
    214. D(B  10,B   9,B   8,B   2)    -12.6753         0.010000   
    215. D(B   8,B   9,B   2,B   0)   -177.0788         0.010000   
    216. D(B  11,B  10,B   2,B   7)    164.8046         0.010000   
    217. D(B  11,B  10,B   2,B   1)      3.8049         0.010000   
    218. D(B  11,B  10,B   2,B   0)     -5.5114         0.010000   
    219. D(B   9,B  10,B   2,B   8)     -7.6180         0.010000   
    220. D(B   9,B  10,B   2,B   7)    -13.7804         0.010000   
    221. D(B   9,B  10,B   2,B   1)   -174.7802         0.010000   
    222. D(B  11,B  10,B   9,B   8)     10.3090         0.010000   
    223. D(B   9,B  10,B   2,B   0)    175.9035         0.010000   
    224. D(B   2,B  10,B   9,B   8)     12.5992         0.010000   
    225. D(B  11,B  10,B   9,B   2)     -2.2902         0.010000   
    226. D(B   0,B  11,B  10,B   2)      3.4861         0.010000   
    227. D(B   0,B  11,B  10,B   9)      5.5423         0.010000   
    228. D(B   3,B  11,B  10,B   2)     -9.3518         0.010000   
    229. D(B   3,B  11,B  10,B   9)     -7.2955         0.010000   
    230. D(B  10,B  11,B   3,B   4)     -2.1831         0.010000   
    231. D(B  10,B  11,B   3,B   0)     15.8478         0.010000   
    232. D(B   0,B  11,B   3,B   4)    -18.0309         0.010000   
    233. D(B  10,B  11,B   0,B   3)   -168.2136         0.010000   
    234. D(B  10,B  11,B   0,B   2)     -5.9739         0.010000   
    235. D(B  10,B  11,B   0,B   1)    -26.9449         0.010000   
    236. D(B   3,B  11,B   0,B   4)     10.4451         0.010000   
    237. D(B   3,B  11,B   0,B   2)    162.2397         0.010000   
    238. D(B   3,B  11,B   0,B   1)    141.2687         0.010000   
    -----------------------------------------------------------------

Number of atoms                         .... 12
Number of degrees of freedom            .... 238


         *************************************************************
         *                GEOMETRY OPTIMIZATION CYCLE   1            *
         *************************************************************
---------------------------------
CARTESIAN COORDINATES (ANGSTROEM)
---------------------------------
  B      1.173560   -0.019816    0.410982
  B     -0.561615    0.919650    0.369158
  B     -0.381750   -0.857938    0.209358
  B      3.465879    0.273302   -0.098774
  B      2.215898    2.597994   -0.291859
  B      0.163744    3.582208   -0.152418
  B     -2.083753    3.138903   -0.124253
  B     -3.355708    0.805869   -0.052246
  B     -3.174256   -1.580891   -0.216498
  B     -1.648453   -3.417978   -0.071944
  B      0.844582   -3.567838   -0.128857
  B      3.117319   -2.036655   -0.051667

----------------------------
CARTESIAN COORDINATES (A.U.)
----------------------------
  NO LB      ZA    FRAG     MASS         X           Y           Z
   0 B     5.0000    0    10.810    2.217707   -0.037446    0.776643
   1 B     5.0000    0    10.810   -1.061299    1.737886    0.697607
   2 B     5.0000    0    10.810   -0.721403   -1.621268    0.395629
   3 B     5.0000    0    10.810    6.549562    0.516465   -0.186656
   4 B     5.0000    0    10.810    4.187441    4.909498   -0.551534
   5 B     5.0000    0    10.810    0.309431    6.769392   -0.288028
   6 B     5.0000    0    10.810   -3.937723    5.931667   -0.234804
   7 B     5.0000    0    10.810   -6.341369    1.522871   -0.098731
   8 B     5.0000    0    10.810   -5.998475   -2.987451   -0.409121
   9 B     5.0000    0    10.810   -3.115125   -6.459042   -0.135954
  10 B     5.0000    0    10.810    1.596028   -6.742236   -0.243504
  11 B     5.0000    0    10.810    5.890880   -3.848721   -0.097636

--------------------------------
INTERNAL COORDINATES (ANGSTROEM)
--------------------------------
 B      0   0   0     0.000000000000     0.00000000     0.00000000
 B      1   0   0     1.973620464351     0.00000000     0.00000000
 B      1   2   0     1.778226937084    56.83736737     0.00000000
 B      1   2   3     2.366536418692   142.00724191   150.85727690
 B      4   1   2     2.646494072719    70.54968321     9.48085840
 B      5   4   1     2.280232057508   143.10680385   356.74656648
 B      6   5   4     2.290972817363   143.14238911   344.75705641
 B      7   6   5     2.658214108835   129.76066365     6.34126818
 B      8   7   6     2.399275985259   146.62093429   350.09242050
 B      9   8   7     2.392458490648   143.89666769    20.18391304
 B     10   9   8     2.498183441616   132.93175566   343.47966980
 B      4   1   2     2.336581566570    74.25912308   200.85511569

---------------------------
INTERNAL COORDINATES (A.U.)
---------------------------
 B      0   0   0     0.000000000000     0.00000000     0.00000000
 B      1   0   0     3.729602169927     0.00000000     0.00000000
 B      1   2   0     3.360361915050    56.83736737     0.00000000
 B      1   2   3     4.472105717278   142.00724191   150.85727690
 B      4   1   2     5.001149012484    70.54968321     9.48085840
 B      5   4   1     4.309014110477   143.10680385   356.74656648
 B      6   5   4     4.329311205074   143.14238911   344.75705641
 B      7   6   5     5.023296671024   129.76066365     6.34126818
 B      8   7   6     4.533974531834   146.62093429   350.09242050
 B      9   8   7     4.521091334100   143.89666769    20.18391304
 B     10   9   8     4.720882536951   132.93175566   343.47966980
 B      4   1   2     4.415499250386    74.25912308   200.85511569

---------------------
BASIS SET INFORMATION
---------------------
There are 1 groups of distinct atoms

 Group   1 Type B   : 7s4p1d contracted to 3s2p1d pattern {511/31/1}

Atom   0B    basis set group =>   1
Atom   1B    basis set group =>   1
Atom   2B    basis set group =>   1
Atom   3B    basis set group =>   1
Atom   4B    basis set group =>   1
Atom   5B    basis set group =>   1
Atom   6B    basis set group =>   1
Atom   7B    basis set group =>   1
Atom   8B    basis set group =>   1
Atom   9B    basis set group =>   1
Atom  10B    basis set group =>   1
Atom  11B    basis set group =>   1
---------------------------------
AUXILIARY/J BASIS SET INFORMATION
---------------------------------
There are 1 groups of distinct atoms

 Group   1 Type B   : 12s5p4d2f1g contracted to 6s4p3d1f1g pattern {711111/2111/211/2/1}

Atom   0B    basis set group =>   1
Atom   1B    basis set group =>   1
Atom   2B    basis set group =>   1
Atom   3B    basis set group =>   1
Atom   4B    basis set group =>   1
Atom   5B    basis set group =>   1
Atom   6B    basis set group =>   1
Atom   7B    basis set group =>   1
Atom   8B    basis set group =>   1
Atom   9B    basis set group =>   1
Atom  10B    basis set group =>   1
Atom  11B    basis set group =>   1


           ************************************************************
           *        Program running with 8 parallel MPI-processes     *
           *              working on a common directory               *
           ************************************************************
------------------------------------------------------------------------------
                             ORCA STARTUP CALCULATIONS
                           -- RI-GTO INTEGRALS CHOSEN --
------------------------------------------------------------------------------
------------------------------------------------------------------------------
                   ___                                                        
                  /   \      - P O W E R E D   B Y -                         
                 /     \                                                     
                 |  |  |   _    _      __       _____    __    __             
                 |  |  |  | |  | |    /  \     |  _  \  |  |  /  |          
                  \  \/   | |  | |   /    \    | | | |  |  | /  /          
                 / \  \   | |__| |  /  /\  \   | |_| |  |  |/  /          
                |  |  |   |  __  | /  /__\  \  |    /   |      \           
                |  |  |   | |  | | |   __   |  |    \   |  |\   \          
                \     /   | |  | | |  |  |  |  | |\  \  |  | \   \       
                 \___/    |_|  |_| |__|  |__|  |_| \__\ |__|  \__/        
                                                                              
                      - O R C A' S   B I G   F R I E N D -                    
                                      &                                       
                       - I N T E G R A L  F E E D E R -                       
                                                                              
 v1 FN, 2020, v2 2021, v3 2022-2024                                           
------------------------------------------------------------------------------


----------------------
SHARK INTEGRAL PACKAGE
----------------------

Number of atoms                             ...     12
Number of basis functions                   ...    168
Number of shells                            ...     72
Maximum angular momentum                    ...      2
Integral batch strategy                     ... SHARK/LIBINT Hybrid
RI-J (if used) integral strategy            ... SPLIT-RIJ (Revised 2003 algorithm where possible)
Printlevel                                  ...      1
Contraction scheme used                     ... SEGMENTED contraction
Prescreening option                         ... SCHWARTZ
   Thresh                                   ... 2.500e-11
   Tcut                                     ... 2.500e-12
   Tpresel                                  ... 2.500e-12 
Coulomb Range Separation                    ... NOT USED
Exchange Range Separation                   ... NOT USED
Multipole approximations                    ... NOT USED
Finite Nucleus Model                        ... NOT USED
CABS basis                                  ... NOT available
Auxiliary Coulomb fitting basis             ... AVAILABLE
   # of basis functions in Aux-J            ...    588
   # of shells in Aux-J                     ...    180
   Maximum angular momentum in Aux-J        ...      4
Auxiliary J/K fitting basis                 ... NOT available
Auxiliary Correlation fitting basis         ... NOT available
Auxiliary 'external' fitting basis          ... NOT available

Checking pre-screening integrals            ... done (  0.0 sec) Dimension = 72
   => SHARK Basis and OBASIS are compatible. Storing Pre-screening
Shell pair information
Shell pair cut-off parameter TPreSel        ...   2.5e-12
Total number of shell pairs                 ...      2628
Shell pairs after pre-screening             ...      2381
Total number of primitive shell pairs       ...     10596
Primitive shell pairs kept                  ...      6485
          la=0 lb=0:    573 shell pairs
          la=1 lb=0:    828 shell pairs
          la=1 lb=1:    294 shell pairs
          la=2 lb=0:    354 shell pairs
          la=2 lb=1:    270 shell pairs
          la=2 lb=2:     62 shell pairs

Checking whether 4 symmetric matrices of dimension 168 fit in memory
:Max Core in MB      =   2500.00
 MB in use           =      6.47
 MB left             =   2493.53
 MB needed           =      0.43
 Data fit in memory  = YES
Calculating RI/J V-Matrix + Cholesky decomp.... done (  0.0 sec)
Calculating Nuclear repulsion               ... done (  0.0 sec) ENN=    231.962181760472 Eh

Diagonalization of the overlap matrix:
Smallest eigenvalue                        ... 1.618e-03
Time for diagonalization                   ...    0.003 sec
Threshold for overlap eigenvalues          ... 1.000e-07
Number of eigenvalues below threshold      ... 0
Time for construction of square roots      ...    0.002 sec
Total time needed                          ...    0.007 sec

-------------------
DFT GRID GENERATION
-------------------

General Integration Accuracy     IntAcc      ... 4.388
Radial Grid Type                 RadialGrid  ... OptM3 with GC (2021)
Angular Grid (max. ang.)         AngularGrid ... 4 (Lebedev-302)
Angular grid pruning method      GridPruning ... 4 (adaptive)
Weight generation scheme         WeightScheme... mBecke (2022)
Basis function cutoff            BFCut       ... 1.0000e-11
Integration weight cutoff        WCut        ... 1.0000e-14
Partially contracted basis set               ... off
Rotationally invariant grid construction     ... off
Angular grids for H and He will be reduced by one unit

Total number of grid points                  ...    72670
Total number of batches                      ...     1141
Average number of points per batch           ...       63
Average number of grid points per atom       ...     6056
Grids setup in   0.7 sec
Initializing property integral containers    ... done (  0.0 sec)

SHARK setup successfully completed in   0.9 seconds

Maximum memory used throughout the entire STARTUP-calculation: 19.6 MB


           ************************************************************
           *        Program running with 8 parallel MPI-processes     *
           *              working on a common directory               *
           ************************************************************
-------------------------------------------------------------------------------
                                 ORCA GUESS
                   Start orbitals & Density for SCF / CASSCF
-------------------------------------------------------------------------------

------------
SCF SETTINGS
------------
Hamiltonian:
 Density Functional     Method          .... DFT(GTOs)
 Exchange Functional    Exchange        .... B88
   X-Alpha parameter    XAlpha          ....  0.666667
   Becke's b parameter  XBeta           ....  0.004200
 Correlation Functional Correlation     .... P86
 LDA part of GGA corr.  LDAOpt          .... PW91-LDA
 Gradients option       PostSCFGGA      .... off
   NL short-range parameter             ....  4.400000
 RI-approximation to the Coulomb term is turned on
   Number of AuxJ basis functions       .... 588


General Settings:
 Integral files         IntName         .... quasi_planar_nn2.00_perturb0
 Hartree-Fock type      HFTyp           .... RHF
 Total Charge           Charge          ....    0
 Multiplicity           Mult            ....    1
 Number of Electrons    NEL             ....   60
 Basis Dimension        Dim             ....  168
 Nuclear Repulsion      ENuc            ....    231.9621817605 Eh

Convergence Acceleration:
 AO-DIIS                CNVDIIS         .... on
   Start iteration      DIISMaxIt       ....     0
   Startup error        DIISStart       ....  0.200000
   # of expansion vecs  DIISMaxEq       ....     5
   Bias factor          DIISBfac        ....   1.050
   Max. coefficient     DIISMaxC        ....  10.000
 MO-DIIS                CNVKDIIS        .... off
 Trust-Rad. Augm. Hess. CNVTRAH         .... auto
   Auto Start mean grad. ratio tolernc. ....  1.125000
   Auto Start start iteration           ....    50
   Auto Start num. interpolation iter.  ....    10
   Max. Number of Micro iterations      ....    24
   Max. Number of Macro iterations      .... Maxiter - #DIIS iter
   Number of Davidson start vectors     ....     2
   Converg. threshold    (grad. norm)   ....   1.000e-05
   Grad. Scal. Fac. for Micro threshold ....   0.100
   Minimum threshold for Micro iter.    ....   1.000e-02
   NR start threshold (gradient norm)   ....   1.000e-04
   Initial trust radius                 ....   0.400
   Minimum AH scaling param. (alpha)    ....   1.000
   Maximum AH scaling param. (alpha)    .... 1000.000
   Quad. conv. algorithm                .... NR
   White noise on init. David. guess    .... on
   Maximum white noise                  ....   0.010
   Pseudo random numbers                .... off
   Inactive MOs                         .... canonical
   Orbital update algorithm             .... Taylor
   Preconditioner                       .... Diag
   Full preconditioner red. dimension   ....   250
 SOSCF                 CNVSOSCF           .... on
   Start iteration     SOSCFMaxIt         ....   150
   Startup grad/error  SOSCFStart         ....  0.001000
   Hessian update      SOSCFHessUp        .... L-BFGS
   Autom. constraints  SOSCFAutoConstrain .... off
 Level Shifting         CNVShift        .... on
   Level shift para.    LevelShift      ....    0.2500
   Turn off err/grad.   ShiftErr        ....    0.0000
 Zerner damping         CNVZerner       .... off
 Static damping         CNVDamp         .... on
   Fraction old density DampFac         ....    0.8500
   Max. Damping (<1)    DampMax         ....    0.9800
   Min. Damping (>=0)   DampMin         ....    0.0000
   Turn off err/grad.   DampErr         ....    0.0300

SCF Procedure:
 Maximum # iterations   MaxIter         ....   125
 SCF integral mode      SCFMode         .... Direct
   Integral package                     .... SHARK and LIBINT hybrid scheme
 Reset frequency        DirectResetFreq ....    20
 Integral Threshold     Thresh          ....  2.500e-11 Eh
 Primitive CutOff       TCut            ....  2.500e-12 Eh

Convergence Tolerance:
 Convergence Check Mode ConvCheckMode   .... Total+1el-Energy
 Convergence forced     ConvForced      .... 0
 Energy Change          TolE            ....  1.000e-08 Eh
 1-El. energy change                    ....  1.000e-05 Eh
 Orbital Gradient       TolG            ....  1.000e-05
 Orbital Rotation angle TolX            ....  1.000e-05
 DIIS Error             TolErr          ....  5.000e-07

------------------------------
INITIAL GUESS: MODEL POTENTIAL
------------------------------
Loading Hartree-Fock densities                     ... done
Calculating cut-offs                               ... done
Initializing the effective Hamiltonian             ... done
Setting up the integral package (SHARK)            ... done
Starting the Coulomb interaction                   ... done (   0.1 sec)
Making the grid                                    ... done (   0.2 sec)
Mapping shells                                     ... done
Starting the XC term evaluation                    ... done (   0.0 sec)
  promolecular density results
     # of electrons  =     59.999977562
     EX              =    -44.570923504
     EC              =     -1.766545984
     EX+EC           =    -46.337469488
Transforming the Hamiltonian                       ... done (   0.0 sec)
Diagonalizing the Hamiltonian                      ... done (   0.0 sec)
Back transforming the eigenvectors                 ... done (   0.0 sec)
Now organizing SCF variables                       ... done
                      ------------------
                      INITIAL GUESS DONE (   0.3 sec)
                      ------------------
             **** ENERGY FILE WAS UPDATED (quasi_planar_nn2.00_perturb0.en.tmp) ****
Finished Guess after   0.8 sec
Maximum memory used throughout the entire GUESS-calculation: 9.2 MB


           ************************************************************
           *        Program running with 8 parallel MPI-processes     *
           *              working on a common directory               *
           ************************************************************

-------------------------------------------------------------------------------------------
                                      ORCA LEAN-SCF
                              memory conserving SCF solver
-------------------------------------------------------------------------------------------

----------------------------------------D-I-I-S--------------------------------------------
Iteration    Energy (Eh)           Delta-E    RMSDP     MaxDP     DIISErr   Damp  Time(sec)
-------------------------------------------------------------------------------------------
               ***  Starting incremental Fock matrix formation  ***
    1    -295.9499682442844914     0.00e+00  8.48e-03  8.36e-02  1.67e-01  0.850   3.0
Warning: op=0 Small HOMO/LUMO gap (  -0.039) - skipping pre-diagonalization
         Will do a full diagonalization
    2    -296.2185319168019078    -2.69e-01  8.25e-03  7.27e-02  9.04e-02  0.850   0.5
                               ***Turning on AO-DIIS***
    3    -296.2908368331458178    -7.23e-02  5.01e-03  3.91e-02  3.32e-02  0.850   0.7
    4    -296.2695431979446994     2.13e-02  3.24e-03  2.07e-02  3.67e-02  0.850   1.0
    5    -296.2452419470646419     2.43e-02  2.33e-03  1.52e-02  6.05e-02  0.850   0.6
    6    -296.2393070031635034     5.93e-03  1.88e-03  1.06e-02  7.14e-02  0.850   0.5
    7    -296.2488977847424394    -9.59e-03  1.60e-03  6.89e-03  7.62e-02  0.850   0.4
    8    -296.2671741676423380    -1.83e-02  1.75e-03  9.12e-03  7.55e-02  0.850   0.3
    9    -296.2931686856923079    -2.60e-02  2.47e-03  2.04e-02  6.96e-02  0.850   0.7
   10    -296.3325149958244538    -3.93e-02  2.29e-03  1.79e-02  4.89e-02  0.850   0.3
   11    -296.3623182022068931    -2.98e-02  1.79e-03  1.04e-02  2.76e-02  0.850   0.3
   12    -296.3804353860044785    -1.81e-02  8.77e-03  4.35e-02  1.35e-02  0.000   0.3
   13    -296.4085142433918918    -2.81e-02  2.35e-03  2.03e-02  4.91e-02  0.000   0.4
   14    -296.4240199703575627    -1.55e-02  1.99e-04  1.45e-03  3.61e-02  0.850   0.6
   15    -296.4252472773488307    -1.23e-03  2.87e-04  1.96e-03  3.49e-02  0.850   0.3
   16    -296.4270165689241594    -1.77e-03  3.27e-04  2.18e-03  3.29e-02  0.850   0.3
   17    -296.4289597613222895    -1.94e-03  6.78e-04  4.86e-03  3.04e-02  0.850   0.2
   18    -296.4324539234889926    -3.49e-03  7.82e-04  5.57e-03  2.57e-02  0.850   0.7
   19    -296.4359714428568395    -3.52e-03  4.33e-03  2.70e-02  1.96e-02  0.000   0.5
   20    -296.4390956081425657    -3.12e-03  1.49e-03  1.31e-02  1.53e-02  0.000   0.3
               *** Restarting incremental Fock matrix formation ***
                             ****Resetting DIIS****
Warning: op=0 Small HOMO/LUMO gap (   0.006) - skipping pre-diagonalization
         Will do a full diagonalization
   21    -296.4409006352419738    -1.81e-03  7.08e-03  5.19e-02  1.05e-02  0.000   0.4
   22    -296.4026176084279314     3.83e-02  3.47e-03  3.30e-02  5.95e-02  0.000   0.3
   23    -296.4332112157388792    -3.06e-02  2.26e-04  1.21e-03  2.71e-02  0.850   0.3
   24    -296.4345420354603675    -1.33e-03  2.07e-03  1.06e-02  2.48e-02  0.000   0.5
   25    -296.4419283162684451    -7.39e-03  7.39e-04  5.19e-03  4.90e-03  0.000   0.4
   26    -296.4423368148056852    -4.08e-04  5.59e-04  3.54e-03  3.42e-03  0.000   0.3
   27    -296.4424886287515619    -1.52e-04  3.78e-04  3.68e-03  1.47e-03  0.000   0.4
   28    -296.4425431297171372    -5.45e-05  2.47e-04  1.44e-03  1.14e-03  0.000   0.7
                              *** Initializing SOSCF ***
---------------------------------------S-O-S-C-F--------------------------------------
Iteration    Energy (Eh)           Delta-E    RMSDP     MaxDP     MaxGrad    Time(sec)
--------------------------------------------------------------------------------------
   29    -296.4425683370055822    -2.52e-05  1.99e-04  7.76e-04  5.73e-04     0.4
               *** Restarting incremental Fock matrix formation ***
   30    -296.4425844351206933    -1.61e-05  2.91e-04  1.90e-03  4.79e-04     0.5
   31    -296.4425624985261720     2.19e-05  2.10e-04  9.88e-04  1.11e-03     0.2
   32    -296.4426085525188910    -4.61e-05  2.95e-04  1.22e-03  5.15e-04     0.2
   33    -296.4426255167281852    -1.70e-05  1.11e-03  4.54e-03  3.28e-04     0.3
   34    -296.4426375367171431    -1.20e-05  2.61e-04  1.71e-03  1.03e-03     0.3
   35    -296.4426577989372618    -2.03e-05  2.55e-04  1.80e-03  5.72e-04     0.3
   36    -296.4426615230916013    -3.72e-06  2.02e-04  8.97e-04  3.07e-04     0.4
   37    -296.4426682905751704    -6.77e-06  1.72e-04  8.72e-04  1.25e-04     0.4
   38    -296.4426638806407936     4.41e-06  1.03e-04  7.04e-04  3.50e-04     0.3
   39    -296.4426691383254138    -5.26e-06  4.84e-05  5.28e-04  4.96e-05     0.5
   40    -296.4426687698628484     3.68e-07  3.46e-05  3.32e-04  8.90e-05     0.4
   41    -296.4426693442163696    -5.74e-07  1.01e-05  4.18e-05  1.55e-05     0.4
   42    -296.4426693735002800    -2.93e-08  2.75e-05  1.07e-04  1.19e-05     0.3
   43    -296.4426694110487688    -3.75e-08  7.46e-06  4.90e-05  9.32e-06     0.3
   44    -296.4426694168832910    -5.83e-09  5.88e-06  3.52e-05  1.01e-05     0.3
                 **** Energy Check signals convergence ****

               *****************************************************
               *                     SUCCESS                       *
               *           SCF CONVERGED AFTER  44 CYCLES          *
               *****************************************************

             **** ENERGY FILE WAS UPDATED (quasi_planar_nn2.00_perturb0.en.tmp) ****

----------------
TOTAL SCF ENERGY
----------------

Total Energy       :       -296.44266942418733 Eh           -8066.61513 eV

Components:
Nuclear Repulsion  :        231.96218176047191 Eh            6312.01186 eV
Electronic Energy  :       -528.40485118465926 Eh          -14378.62700 eV
One Electron Energy:       -852.56791060228386 Eh          -23199.55229 eV
Two Electron Energy:        324.16305941762459 Eh            8820.92529 eV

Virial components:
Potential Energy   :       -588.06524857822751 Eh          -16002.06894 eV
Kinetic Energy     :        291.62257915404024 Eh            7935.45381 eV
Virial Ratio       :          2.01652852218827

DFT components:
N(Alpha)           :       29.999997801815 electrons
N(Beta)            :       29.999997801815 electrons
N(Total)           :       59.999995603631 electrons
E(X)               :      -44.834680492403 Eh       
E(C)               :       -1.804055925791 Eh       
E(XC)              :      -46.638736418194 Eh       

---------------
SCF CONVERGENCE
---------------

  Last Energy change         ...    5.8345e-09  Tolerance :   1.0000e-08
  Last MAX-Density change    ...    3.5206e-05  Tolerance :   1.0000e-07
  Last RMS-Density change    ...    5.8788e-06  Tolerance :   5.0000e-09
  Last DIIS Error            ...    5.7261e-04  Tolerance :   5.0000e-07
  Last Orbital Gradient      ...    1.0079e-05  Tolerance :   1.0000e-05
  Last Orbital Rotation      ...    9.0320e-05  Tolerance :   1.0000e-05


----------------
ORBITAL ENERGIES
----------------

  NO   OCC          E(Eh)            E(eV) 
   0   2.0000      -6.670251      -181.5068 
   1   2.0000      -6.664025      -181.3373 
   2   2.0000      -6.660283      -181.2355 
   3   2.0000      -6.658066      -181.1752 
   4   2.0000      -6.656252      -181.1258 
   5   2.0000      -6.648379      -180.9116 
   6   2.0000      -6.647816      -180.8963 
   7   2.0000      -6.647134      -180.8777 
   8   2.0000      -6.636547      -180.5896 
   9   2.0000      -6.605388      -179.7417 
  10   2.0000      -6.596274      -179.4937 
  11   2.0000      -6.590838      -179.3458 
  12   2.0000      -0.510740       -13.8979 
  13   2.0000      -0.429319       -11.6824 
  14   2.0000      -0.425637       -11.5822 
  15   2.0000      -0.420262       -11.4359 
  16   2.0000      -0.391736       -10.6597 
  17   2.0000      -0.380686       -10.3590 
  18   2.0000      -0.344805        -9.3826 
  19   2.0000      -0.328338        -8.9345 
  20   2.0000      -0.296732        -8.0745 
  21   2.0000      -0.281435        -7.6582 
  22   2.0000      -0.272737        -7.4215 
  23   2.0000      -0.271539        -7.3890 
  24   2.0000      -0.229843        -6.2544 
  25   2.0000      -0.219803        -5.9812 
  26   2.0000      -0.210727        -5.7342 
  27   2.0000      -0.203314        -5.5325 
  28   2.0000      -0.192674        -5.2429 
  29   2.0000      -0.184862        -5.0303 
  30   0.0000      -0.180021        -4.8986 
  31   0.0000      -0.178450        -4.8559 
  32   0.0000      -0.168257        -4.5785 
  33   0.0000      -0.153775        -4.1844 
  34   0.0000      -0.149690        -4.0733 
  35   0.0000      -0.146063        -3.9746 
  36   0.0000      -0.143910        -3.9160 
  37   0.0000      -0.143123        -3.8946 
  38   0.0000      -0.136750        -3.7212 
  39   0.0000      -0.118462        -3.2235 
  40   0.0000      -0.106808        -2.9064 
*Only the first 10 virtual orbitals were printed.

                    ********************************
                    * MULLIKEN POPULATION ANALYSIS *
                    ********************************

-----------------------
MULLIKEN ATOMIC CHARGES
-----------------------
   0 B :   -0.203631
   1 B :   -0.213619
   2 B :   -0.154923
   3 B :    0.026800
   4 B :    0.069199
   5 B :    0.023632
   6 B :    0.073368
   7 B :    0.092630
   8 B :    0.053860
   9 B :    0.030685
  10 B :    0.107919
  11 B :    0.094079
Sum of atomic charges:    0.0000000

--------------------------------
MULLIKEN REDUCED ORBITAL CHARGES
--------------------------------
  0 B s       :     3.272820  s :     3.272820
      pz      :     0.492431  p :     1.909087
      px      :     0.717852
      py      :     0.698804
      dz2     :     0.001813  d :     0.021724
      dxz     :     0.003926
      dyz     :     0.000272
      dx2y2   :     0.008067
      dxy     :     0.007646

  1 B s       :     3.284853  s :     3.284853
      pz      :     0.489306  p :     1.908278
      px      :     0.670110
      py      :     0.748862
      dz2     :     0.001701  d :     0.020489
      dxz     :     0.001230
      dyz     :     0.003153
      dx2y2   :     0.006631
      dxy     :     0.007773

  2 B s       :     3.157754  s :     3.157754
      pz      :     0.499356  p :     1.973275
      px      :     0.755266
      py      :     0.718652
      dz2     :     0.001945  d :     0.023894
      dxz     :     0.001143
      dyz     :     0.003866
      dx2y2   :     0.008320
      dxy     :     0.008620

  3 B s       :     3.735933  s :     3.735933
      pz      :     0.147078  p :     1.226130
      px      :     0.544168
      py      :     0.534884
      dz2     :     0.001448  d :     0.011137
      dxz     :     0.001059
      dyz     :     0.000222
      dx2y2   :     0.005256
      dxy     :     0.003152

  4 B s       :     3.780720  s :     3.780720
      pz      :     0.191164  p :     1.142217
      px      :     0.515462
      py      :     0.435591
      dz2     :     0.001168  d :     0.007864
      dxz     :     0.000488
      dyz     :     0.000320
      dx2y2   :     0.002662
      dxy     :     0.003226

  5 B s       :     3.694543  s :     3.694543
      pz      :     0.159925  p :     1.272425
      px      :     0.663789
      py      :     0.448711
      dz2     :     0.001336  d :     0.009400
      dxz     :     0.000233
      dyz     :     0.000419
      dx2y2   :     0.004020
      dxy     :     0.003392

  6 B s       :     3.801247  s :     3.801247
      pz      :     0.081176  p :     1.115986
      px      :     0.576931
      py      :     0.457880
      dz2     :     0.001489  d :     0.009399
      dxz     :     0.000349
      dyz     :     0.000274
      dx2y2   :     0.003567
      dxy     :     0.003720

  7 B s       :     3.824612  s :     3.824612
      pz      :     0.107456  p :     1.075217
      px      :     0.343577
      py      :     0.624184
      dz2     :     0.001276  d :     0.007541
      dxz     :     0.000252
      dyz     :     0.000133
      dx2y2   :     0.003876
      dxy     :     0.002004

  8 B s       :     3.752688  s :     3.752688
      pz      :     0.098079  p :     1.185857
      px      :     0.447653
      py      :     0.640125
      dz2     :     0.001177  d :     0.007595
      dxz     :     0.000202
      dyz     :     0.000123
      dx2y2   :     0.003386
      dxy     :     0.002705

  9 B s       :     3.775734  s :     3.775734
      pz      :     0.070484  p :     1.185937
      px      :     0.589393
      py      :     0.526059
      dz2     :     0.001249  d :     0.007644
      dxz     :     0.000054
      dyz     :     0.000214
      dx2y2   :     0.002890
      dxy     :     0.003236

 10 B s       :     3.860380  s :     3.860380
      pz      :     0.067959  p :     1.025843
      px      :     0.624846
      py      :     0.333038
      dz2     :     0.001017  d :     0.005858
      dxz     :     0.000062
      dyz     :     0.000132
      dx2y2   :     0.002585
      dxy     :     0.002062

 11 B s       :     3.841892  s :     3.841892
      pz      :     0.089072  p :     1.056375
      px      :     0.419828
      py      :     0.547475
      dz2     :     0.001226  d :     0.007654
      dxz     :     0.000137
      dyz     :     0.000341
      dx2y2   :     0.002896
      dxy     :     0.003053



                     *******************************
                     * LOEWDIN POPULATION ANALYSIS *
                     *******************************

----------------------
LOEWDIN ATOMIC CHARGES
----------------------
   0 B :   -0.120005
   1 B :   -0.094576
   2 B :   -0.159536
   3 B :   -0.041762
   4 B :    0.080694
   5 B :    0.015658
   6 B :    0.008860
   7 B :    0.087787
   8 B :    0.048875
   9 B :   -0.012505
  10 B :    0.101413
  11 B :    0.085097

-------------------------------
LOEWDIN REDUCED ORBITAL CHARGES
-------------------------------
  0 B s       :     2.967331  s :     2.967331
      pz      :     0.492084  p :     2.100686
      px      :     0.847820
      py      :     0.760783
      dz2     :     0.006525  d :     0.051988
      dxz     :     0.006334
      dyz     :     0.000479
      dx2y2   :     0.019522
      dxy     :     0.019128

  1 B s       :     3.000105  s :     3.000105
      pz      :     0.485568  p :     2.047268
      px      :     0.730847
      py      :     0.830853
      dz2     :     0.006312  d :     0.047203
      dxz     :     0.001690
      dyz     :     0.004900
      dx2y2   :     0.016483
      dxy     :     0.017818

  2 B s       :     2.954048  s :     2.954048
      pz      :     0.500108  p :     2.147940
      px      :     0.829144
      py      :     0.818687
      dz2     :     0.007221  d :     0.057548
      dxz     :     0.002077
      dyz     :     0.006274
      dx2y2   :     0.021986
      dxy     :     0.019991

  3 B s       :     3.515280  s :     3.515280
      pz      :     0.158790  p :     1.504234
      px      :     0.676162
      py      :     0.669281
      dz2     :     0.003448  d :     0.022248
      dxz     :     0.001842
      dyz     :     0.000324
      dx2y2   :     0.011793
      dxy     :     0.004840

  4 B s       :     3.594727  s :     3.594727
      pz      :     0.194451  p :     1.309527
      px      :     0.621386
      py      :     0.493690
      dz2     :     0.002666  d :     0.015053
      dxz     :     0.000619
      dyz     :     0.000397
      dx2y2   :     0.004674
      dxy     :     0.006696

  5 B s       :     3.475418  s :     3.475418
      pz      :     0.162192  p :     1.488427
      px      :     0.810695
      py      :     0.515539
      dz2     :     0.003613  d :     0.020498
      dxz     :     0.000371
      dyz     :     0.000546
      dx2y2   :     0.009261
      dxy     :     0.006707

  6 B s       :     3.616520  s :     3.616520
      pz      :     0.085309  p :     1.356342
      px      :     0.725860
      py      :     0.545173
      dz2     :     0.003384  d :     0.018278
      dxz     :     0.000465
      dyz     :     0.000400
      dx2y2   :     0.007435
      dxy     :     0.006595

  7 B s       :     3.659242  s :     3.659242
      pz      :     0.109208  p :     1.239019
      px      :     0.391777
      py      :     0.738034
      dz2     :     0.002663  d :     0.013952
      dxz     :     0.000298
      dyz     :     0.000207
      dx2y2   :     0.007823
      dxy     :     0.002962

  8 B s       :     3.567542  s :     3.567542
      pz      :     0.098945  p :     1.368153
      px      :     0.510856
      py      :     0.758352
      dz2     :     0.002852  d :     0.015430
      dxz     :     0.000238
      dyz     :     0.000193
      dx2y2   :     0.006751
      dxy     :     0.005397

  9 B s       :     3.600130  s :     3.600130
      pz      :     0.072100  p :     1.397459
      px      :     0.705269
      py      :     0.620090
      dz2     :     0.002793  d :     0.014917
      dxz     :     0.000079
      dyz     :     0.000272
      dx2y2   :     0.005305
      dxy     :     0.006467

 10 B s       :     3.725794  s :     3.725794
      pz      :     0.067645  p :     1.162647
      px      :     0.723637
      py      :     0.371364
      dz2     :     0.001981  d :     0.010146
      dxz     :     0.000073
      dyz     :     0.000133
      dx2y2   :     0.004862
      dxy     :     0.003097

 11 B s       :     3.671002  s :     3.671002
      pz      :     0.090522  p :     1.229971
      px      :     0.475759
      py      :     0.663689
      dz2     :     0.002578  d :     0.013930
      dxz     :     0.000176
      dyz     :     0.000419
      dx2y2   :     0.005792
      dxy     :     0.004965



                      *****************************
                      * MAYER POPULATION ANALYSIS *
                      *****************************

  NA   - Mulliken gross atomic population
  ZA   - Total nuclear charge
  QA   - Mulliken gross atomic charge
  VA   - Mayer's total valence
  BVA  - Mayer's bonded valence
  FA   - Mayer's free valence

  ATOM       NA         ZA         QA         VA         BVA        FA
  0 B      5.2036     5.0000    -0.2036     3.4805     3.4805    -0.0000
  1 B      5.2136     5.0000    -0.2136     3.4733     3.4733    -0.0000
  2 B      5.1549     5.0000    -0.1549     3.5199     3.5199    -0.0000
  3 B      4.9732     5.0000     0.0268     2.0993     2.0993    -0.0000
  4 B      4.9308     5.0000     0.0692     1.9864     1.9864     0.0000
  5 B      4.9764     5.0000     0.0236     2.2281     2.2281     0.0000
  6 B      4.9266     5.0000     0.0734     1.8799     1.8799     0.0000
  7 B      4.9074     5.0000     0.0926     1.8328     1.8328     0.0000
  8 B      4.9461     5.0000     0.0539     2.0438     2.0438     0.0000
  9 B      4.9693     5.0000     0.0307     1.9991     1.9991    -0.0000
 10 B      4.8921     5.0000     0.1079     1.7046     1.7046     0.0000
 11 B      4.9059     5.0000     0.0941     1.7923     1.7923     0.0000

  Mayer bond orders larger than 0.100000
B(  0-B ,  1-B ) :   0.8212 B(  0-B ,  2-B ) :   1.0429 B(  0-B ,  3-B ) :   0.5892 
B(  0-B ,  4-B ) :   0.2796 B(  0-B , 11-B ) :   0.3143 B(  1-B ,  2-B ) :   1.0294 
B(  1-B ,  4-B ) :   0.1612 B(  1-B ,  5-B ) :   0.4104 B(  1-B ,  6-B ) :   0.3991 
B(  1-B ,  7-B ) :   0.3044 B(  2-B ,  7-B ) :   0.1183 B(  2-B ,  8-B ) :   0.3307 
B(  2-B ,  9-B ) :   0.3655 B(  2-B , 10-B ) :   0.2912 B(  3-B ,  4-B ) :   0.4150 
B(  3-B , 11-B ) :   0.5650 B(  4-B ,  5-B ) :   0.6039 B(  4-B ,  9-B ) :   0.1057 
B(  5-B ,  6-B ) :   0.6012 B(  6-B ,  7-B ) :   0.3724 B(  7-B ,  8-B ) :   0.5131 
B(  8-B ,  9-B ) :   0.5953 B(  8-B , 10-B ) :   0.1035 B(  9-B , 10-B ) :   0.5043 
B( 10-B , 11-B ) :   0.3615 

-------
TIMINGS
-------

Total SCF time: 0 days 0 hours 0 min 21 sec 

Total time                  ....      21.838 sec
Sum of individual times     ....      21.232 sec  ( 97.2%)

SCF preparation             ....       0.559 sec  (  2.6%)
Fock matrix formation       ....      15.046 sec  ( 68.9%)
  Startup                   ....       0.042 sec  (  0.3% of F)
  Split-RI-J                ....       4.643 sec  ( 30.9% of F)
  XC integration            ....       8.703 sec  ( 57.8% of F)
    XC Preparation          ....       0.000 sec  (  0.0% of XC)
    Basis function eval.    ....       1.636 sec  ( 18.8% of XC)
    Density eval.           ....       0.905 sec  ( 10.4% of XC)
    XC-Functional eval.     ....       0.266 sec  (  3.1% of XC)
    XC-Potential eval.      ....       1.005 sec  ( 11.5% of XC)
Diagonalization             ....       0.000 sec  (  0.0%)
Density matrix formation    ....       0.687 sec  (  3.1%)
Total Energy calculation    ....       1.107 sec  (  5.1%)
Population analysis         ....       0.066 sec  (  0.3%)
Orbital Transformation      ....       0.120 sec  (  0.5%)
Orbital Orthonormalization  ....       0.000 sec  (  0.0%)
DIIS solution               ....       2.912 sec  ( 13.3%)
SOSCF solution              ....       0.735 sec  (  3.4%)
Finished LeanSCF after  21.9 sec

Maximum memory used throughout the entire LEANSCF-calculation: 9.5 MB


-------------------------------------------------------------------------------
                          DFT DISPERSION CORRECTION                            
                                                                               
                              DFTD3 V3.1  Rev 1                                
                          USING Becke-Johnson damping                          
-------------------------------------------------------------------------------
The BP86 functional is recognized
Active option DFTDOPT                   ...         4   

molecular C6(AA) [au] = 12966.722437 


            DFT-D V3
 parameters
 s6 scaling factor         :     1.0000 
 a1 scaling factor         :     0.3946 
 s8 scaling factor         :     3.2822 
 a2 scaling factor         :     4.8516 
 ad hoc parameters k1-k3   :    16.0000     1.3333    -4.0000 

 Edisp/kcal,au: -33.802172257434  -0.053867184559 
 E6   /kcal   : -10.041525417 
 E8   /kcal   : -23.760646840 
 % E8         :  70.293254111 

-------------------------   ----------------
Dispersion correction           -0.053867185
-------------------------   ----------------


-------------------------   --------------------
FINAL SINGLE POINT ENERGY      -296.496536608746
-------------------------   --------------------



           ************************************************************
           *        Program running with 8 parallel MPI-processes     *
           *              working on a common directory               *
           ************************************************************
------------------------------------------------------------------------------
                         ORCA SCF GRADIENT CALCULATION
------------------------------------------------------------------------------

Nuc. rep. gradient        (SHARK) ... done (  0.0 sec)
HCore & Overlap gradient  (SHARK) ... done (  0.0 sec)
Split-RIJ-J gradient      (SHARK) ... done (  0.3 sec)
XC gradient                       ... done (  1.1 sec)
Dispersion correction             ... done (  0.2 sec)

-------------------
DISPERSION GRADIENT
-------------------

   1   B   :   -0.003352071    0.001879173   -0.000107556
   2   B   :    0.003820315   -0.003104284    0.000216653
   3   B   :    0.000351026    0.001579837    0.000497290
   4   B   :    0.000308089   -0.000637981    0.000132088
   5   B   :   -0.000254259    0.001467541   -0.000092290
   6   B   :    0.000044620    0.000372836   -0.000168541
   7   B   :    0.000537510    0.001123192   -0.000048548
   8   B   :   -0.001215769   -0.000013889   -0.000069201
   9   B   :   -0.000992950   -0.000492307   -0.000099013
  10   B   :   -0.000601128   -0.000847241   -0.000094451
  11   B   :    0.000142581   -0.001425632   -0.000107613
  12   B   :    0.001212036    0.000098754   -0.000058820

Difference to translation invariance:
           :    0.0000000000   -0.0000000000   -0.0000000000

Difference to rotation invariance:
           :    0.0000000000    0.0000000000   -0.0000000000

Norm of the Dispersion gradient    ...    0.0073313231
RMS gradient                       ...    0.0012218872
MAX gradient                       ...    0.0038203146

------------------
CARTESIAN GRADIENT
------------------

   1   B   :    0.004797125    0.001127302    0.015829092
   2   B   :   -0.009901246    0.008267406    0.014428253
   3   B   :   -0.006040023   -0.017030269    0.003614773
   4   B   :    0.053662145    0.012716357   -0.007309823
   5   B   :    0.026024875    0.022281418   -0.004520792
   6   B   :    0.009958844    0.043508961   -0.006189692
   7   B   :   -0.035746820    0.027012306   -0.002372557
   8   B   :   -0.030593685    0.009078406   -0.001800273
   9   B   :   -0.039561075   -0.004266356   -0.005887437
  10   B   :   -0.013419096   -0.040894217   -0.001072696
  11   B   :    0.021253656   -0.028396493   -0.002201556
  12   B   :    0.019565301   -0.033404820   -0.002517291

Difference to translation invariance:
           :    0.0000000000   -0.0000000000    0.0000000000

Difference to rotation invariance:
           :    0.0000315269   -0.0000064349    0.0000646929

Norm of the Cartesian gradient     ...    0.1287737090
RMS gradient                       ...    0.0214622848
MAX gradient                       ...    0.0536621445

-------
TIMINGS
-------

Total SCF gradient time     ....        1.635 sec

Densities                   ....       0.001 sec  (  0.1%)
One electron gradient       ....       0.039 sec  (  2.4%)
RI-J Coulomb gradient       ....       0.332 sec  ( 20.3%)
XC gradient                 ....       1.055 sec  ( 64.5%)

Maximum memory used throughout the entire SCFGRAD-calculation: 29.2 MB
------------------------------------------------------------------------------
                         ORCA GEOMETRY RELAXATION STEP
------------------------------------------------------------------------------

Reading the OPT-File                    .... done
Getting information on internals        .... done
Copying old internal coords+grads       .... done
Making the new internal coordinates     .... (2022 redundants) done
Validating the new internal coordinates .... (2022 redundants) done
Calculating the B-matrix                .... done
Calculating the G,G- and P matrices     .... done
Transforming gradient to internals      .... done
Projecting the internal gradient        .... done
Number of atoms                         ....  12
Number of internal coordinates          .... 238
Current Energy                          ....  -296.496536609 Eh
Current gradient norm                   ....     0.128773709 Eh/bohr
Maximum allowed component of the step   ....  0.300
Current trust radius                    ....  0.300
Evaluating the initial hessian          ....  (Almloef) done
Projecting the Hessian                  .... done
Forming the augmented Hessian           .... done
Diagonalizing the augmented Hessian     .... done
Last element of RFO vector              ....  0.748195273
Lowest eigenvalues of augmented Hessian:
 -0.098075030  0.010088468  0.010158343  0.010190501  0.010360166
Length of the computed step             ....  0.886771956
Warning: the length of the step is outside the trust region - taking restricted step instead
The input lambda is                     ....     0.009088
   iter:   5  x=   -0.017039  g= 2033.131498 f(x)=    20.739192
   iter:  10  x=   -0.205742  g=    5.209151 f(x)=     0.339050
   iter:  15  x=   -0.340833  g=    0.479707 f(x)=     0.000002
The output lambda is                    ....    -0.340833 (17 iterations)
The final length of the internal step   ....  0.300000000
Converting the step to Cartesian space:
 Initial RMS(Int)=    0.0194461117
Transforming coordinates:
 Iter   0:  RMS(Cart)=    0.0463043288 RMS(Int)=    0.0194419073
done
Storing new coordinates                 .... done

                                .--------------------.
          ----------------------|Geometry convergence|-------------------------
          Item                value                   Tolerance       Converged
          ---------------------------------------------------------------------
          RMS gradient        0.0074621693            0.0001000000      NO
          MAX gradient        0.0317452592            0.0003000000      NO
          RMS step            0.0194461117            0.0020000000      NO
          MAX step            0.0811118946            0.0040000000      NO
          -------------------------------------------------------------------------
          ........................................................
          Max(Bonds)      0.0429      Max(Angles)    0.99
          Max(Dihed)        0.44      Max(Improp)    0.00
          ---------------------------------------------------------------------

The optimization has not yet converged - more geometry cycles are needed


    ---------------------------------------------------------------------------
[...]

  6 B s       :     3.363203  s :     3.363203
      pz      :     0.439067  p :     1.860635
      px      :     0.769696
      py      :     0.651871
      dz2     :     0.003894  d :     0.044709
      dxz     :     0.003691
      dyz     :     0.009071
      dx2y2   :     0.014911
      dxy     :     0.013142

  7 B s       :     3.365012  s :     3.365012
      pz      :     0.438005  p :     1.859632
      px      :     0.585533
      py      :     0.836094
      dz2     :     0.003859  d :     0.044708
      dxz     :     0.009828
      dyz     :     0.002930
      dx2y2   :     0.014270
      dxy     :     0.013820

  8 B s       :     3.192781  s :     3.192781
      pz      :     0.439206  p :     1.574211
      px      :     0.565987
      py      :     0.569018
      dz2     :     0.003374  d :     0.047808
      dxz     :     0.006793
      dyz     :     0.006812
      dx2y2   :     0.015392
      dxy     :     0.015437

  9 B s       :     3.366149  s :     3.366149
      pz      :     0.437315  p :     1.859953
      px      :     0.792019
      py      :     0.630619
      dz2     :     0.003838  d :     0.044743
      dxz     :     0.005839
      dyz     :     0.006877
      dx2y2   :     0.013613
      dxy     :     0.014576

 10 B s       :     3.365420  s :     3.365420
      pz      :     0.438540  p :     1.860840
      px      :     0.827521
      py      :     0.594779
      dz2     :     0.003868  d :     0.044709
      dxz     :     0.004612
      dyz     :     0.008109
      dx2y2   :     0.013193
      dxy     :     0.014927

 11 B s       :     3.194394  s :     3.194394
      pz      :     0.439340  p :     1.571592
      px      :     0.564946
      py      :     0.567306
      dz2     :     0.003396  d :     0.047689
      dxz     :     0.006805
      dyz     :     0.006833
      dx2y2   :     0.015185
      dxy     :     0.015469



                     *******************************
                     * LOEWDIN POPULATION ANALYSIS *
                     *******************************

----------------------
LOEWDIN ATOMIC CHARGES
----------------------
   0 B :   -0.058205
   1 B :   -0.057867
   2 B :   -0.058871
   3 B :   -0.000742
   4 B :   -0.000756
   5 B :    0.059941
   6 B :   -0.000900
   7 B :    0.000153
   8 B :    0.058036
   9 B :   -0.000006
  10 B :   -0.000518
  11 B :    0.059735

-------------------------------
LOEWDIN REDUCED ORBITAL CHARGES
-------------------------------
  0 B s       :     2.558847  s :     2.558847
      pz      :     0.654555  p :     2.277658
      px      :     0.830983
      py      :     0.792119
      dz2     :     0.021136  d :     0.221701
      dxz     :     0.025747
      dyz     :     0.025503
      dx2y2   :     0.073205
      dxy     :     0.076110

  1 B s       :     2.558784  s :     2.558784
      pz      :     0.654075  p :     2.277262
      px      :     0.821636
      py      :     0.801550
      dz2     :     0.021095  d :     0.221821
      dxz     :     0.025630
      dyz     :     0.025453
      dx2y2   :     0.067437
      dxy     :     0.082205

  2 B s       :     2.558343  s :     2.558343
      pz      :     0.653962  p :     2.278189
      px      :     0.783218
      py      :     0.841009
      dz2     :     0.021088  d :     0.222339
      dxz     :     0.025249
      dyz     :     0.025609
      dx2y2   :     0.084029
      dxy     :     0.066364

  3 B s       :     2.787845  s :     2.787845
      pz      :     0.475719  p :     2.104771
      px      :     0.659346
      py      :     0.969706
      dz2     :     0.011282  d :     0.108125
      dxz     :     0.019536
      dyz     :     0.007833
      dx2y2   :     0.032870
      dxy     :     0.036604

  4 B s       :     2.787928  s :     2.787928
      pz      :     0.475219  p :     2.104684
      px      :     0.832976
      py      :     0.796489
      dz2     :     0.011305  d :     0.108144
      dxz     :     0.010382
      dyz     :     0.017055
      dx2y2   :     0.037182
      dxy     :     0.032220

  5 B s       :     2.736028  s :     2.736028
      pz      :     0.462693  p :     2.074461
      px      :     0.952158
      py      :     0.659610
      dz2     :     0.011408  d :     0.129569
      dxz     :     0.016883
      dyz     :     0.012992
      dx2y2   :     0.041423
      dxy     :     0.046864

  6 B s       :     2.787784  s :     2.787784
      pz      :     0.474787  p :     2.105000
      px      :     0.888267
      py      :     0.741946
      dz2     :     0.011315  d :     0.108116
      dxz     :     0.008580
      dyz     :     0.018726
      dx2y2   :     0.037727
      dxy     :     0.031768

  7 B s       :     2.788269  s :     2.788269
      pz      :     0.473509  p :     2.103437
      px      :     0.672678
      py      :     0.957250
      dz2     :     0.011267  d :     0.108141
      dxz     :     0.019947
      dyz     :     0.007302
      dx2y2   :     0.035022
      dxy     :     0.034603

  8 B s       :     2.734768  s :     2.734768
      pz      :     0.462300  p :     2.077194
      px      :     0.711413
      py      :     0.903481
      dz2     :     0.011467  d :     0.130003
      dxz     :     0.013413
      dyz     :     0.016065
      dx2y2   :     0.044997
      dxy     :     0.044061

  9 B s       :     2.788166  s :     2.788166
      pz      :     0.472175  p :     2.103674
      px      :     0.897559
      py      :     0.733941
      dz2     :     0.011295  d :     0.108166
      dxz     :     0.012720
      dyz     :     0.014298
      dx2y2   :     0.033809
      dxy     :     0.036044

 10 B s       :     2.787851  s :     2.787851
      pz      :     0.473548  p :     2.104589
      px      :     0.939064
      py      :     0.691977
      dz2     :     0.011327  d :     0.108078
      dxz     :     0.010478
      dyz     :     0.016585
      dx2y2   :     0.032112
      dxy     :     0.037576

 11 B s       :     2.735967  s :     2.735967
      pz      :     0.462487  p :     2.074753
      px      :     0.756714
      py      :     0.855551
      dz2     :     0.011426  d :     0.129545
      dxz     :     0.014186
      dyz     :     0.015488
      dx2y2   :     0.046481
      dxy     :     0.041964



                      *****************************
                      * MAYER POPULATION ANALYSIS *
                      *****************************

  NA   - Mulliken gross atomic population
  ZA   - Total nuclear charge
  QA   - Mulliken gross atomic charge
  VA   - Mayer's total valence
  BVA  - Mayer's bonded valence
  FA   - Mayer's free valence

  ATOM       NA         ZA         QA         VA         BVA        FA
  0 B      4.6472     5.0000     0.3528     2.8194     2.8194    -0.0000
  1 B      4.6505     5.0000     0.3495     2.8249     2.8249     0.0000
  2 B      4.6399     5.0000     0.3601     2.8100     2.8100     0.0000
  3 B      5.2712     5.0000    -0.2712     3.2797     3.2797     0.0000
  4 B      5.2699     5.0000    -0.2699     3.2799     3.2799    -0.0000
  5 B      4.8131     5.0000     0.1869     3.3145     3.3145    -0.0000
  6 B      5.2685     5.0000    -0.2685     3.2801     3.2801     0.0000
  7 B      5.2694     5.0000    -0.2694     3.2805     3.2805    -0.0000
  8 B      4.8148     5.0000     0.1852     3.3170     3.3170    -0.0000
  9 B      5.2708     5.0000    -0.2708     3.2772     3.2772    -0.0000
 10 B      5.2710     5.0000    -0.2710     3.2776     3.2776    -0.0000
 11 B      4.8137     5.0000     0.1863     3.3143     3.3143    -0.0000

  Mayer bond orders larger than 0.100000
B(  0-B ,  1-B ) :   0.4808 B(  0-B ,  2-B ) :   0.4757 B(  0-B ,  3-B ) :   0.5077 
B(  0-B ,  4-B ) :   0.5078 B(  0-B ,  5-B ) :   0.4390 B(  0-B , 11-B ) :   0.4399 
B(  1-B ,  2-B ) :   0.4773 B(  1-B ,  5-B ) :   0.4405 B(  1-B ,  6-B ) :   0.5090 
B(  1-B ,  7-B ) :   0.5088 B(  1-B ,  8-B ) :   0.4410 B(  2-B ,  8-B ) :   0.4393 
B(  2-B ,  9-B ) :   0.5045 B(  2-B , 10-B ) :   0.5055 B(  2-B , 11-B ) :   0.4377 
B(  3-B ,  4-B ) :   1.4832 B(  3-B , 11-B ) :   1.0803 B(  4-B ,  5-B ) :   1.0792 
B(  5-B ,  6-B ) :   1.0793 B(  6-B ,  7-B ) :   1.4816 B(  7-B ,  8-B ) :   1.0804 
B(  8-B ,  9-B ) :   1.0816 B(  9-B , 10-B ) :   1.4831 B( 10-B , 11-B ) :   1.0810 


-------
TIMINGS
-------

Total SCF time: 0 days 0 hours 0 min 4 sec 

Total time                  ....       4.023 sec
Sum of individual times     ....       3.427 sec  ( 85.2%)

SCF preparation             ....       0.862 sec  ( 21.4%)
Fock matrix formation       ....       1.982 sec  ( 49.3%)
  Startup                   ....       0.007 sec  (  0.4% of F)
  Split-RI-J                ....       0.787 sec  ( 39.7% of F)
  XC integration            ....       1.379 sec  ( 69.6% of F)
    XC Preparation          ....       0.000 sec  (  0.0% of XC)
    Basis function eval.    ....       0.304 sec  ( 22.0% of XC)
    Density eval.           ....       0.202 sec  ( 14.6% of XC)
    XC-Functional eval.     ....       0.032 sec  (  2.3% of XC)
    XC-Potential eval.      ....       0.243 sec  ( 17.6% of XC)
Diagonalization             ....       0.000 sec  (  0.0%)
Density matrix formation    ....       0.019 sec  (  0.5%)
Total Energy calculation    ....       0.035 sec  (  0.9%)
Population analysis         ....       0.150 sec  (  3.7%)
Orbital Transformation      ....       0.133 sec  (  3.3%)
Orbital Orthonormalization  ....       0.000 sec  (  0.0%)
DIIS solution               ....       0.154 sec  (  3.8%)
SOSCF solution              ....       0.091 sec  (  2.3%)
Finished LeanSCF after   4.6 sec

Maximum memory used throughout the entire LEANSCF-calculation: 11.9 MB


-------------------------------------------------------------------------------
                          DFT DISPERSION CORRECTION                            
                                                                               
                              DFTD3 V3.1  Rev 1                                
                          USING Becke-Johnson damping                          
-------------------------------------------------------------------------------
The BP86 functional is recognized
Active option DFTDOPT                   ...         4   

molecular C6(AA) [au] = 4351.367110 


            DFT-D V3
 parameters
 s6 scaling factor         :     1.0000 
 a1 scaling factor         :     0.3946 
 s8 scaling factor         :     3.2822 
 a2 scaling factor         :     4.8516 
 ad hoc parameters k1-k3   :    16.0000     1.3333    -4.0000 

 Edisp/kcal,au: -20.737245189355  -0.033046900221 
 E6   /kcal   :  -5.976974677 
 E8   /kcal   : -14.760270513 
 % E8         :  71.177585923 

-------------------------   ----------------
Dispersion correction           -0.033046900
-------------------------   ----------------


-------------------------   --------------------
FINAL SINGLE POINT ENERGY      -297.750641667501
-------------------------   --------------------

                                *** OPTIMIZATION RUN DONE ***



           ************************************************************
           *        Program running with 8 parallel MPI-processes     *
           *              working on a common directory               *
           ************************************************************

------------------------------------------------------------------------------
                              ORCA PROPERTY CALCULATIONS
------------------------------------------------------------------------------

GBWName                                 ... quasi_planar_nn2.00_perturb0.gbw
Number of atoms                         ...     12
Number of basis functions               ...    168
Max core memory                         ...   2500 MB

Electric properties:
Dipole moment                           ... YES
Quadrupole moment                       ...  NO
Static polarizability (Dipole/Dipole)   ...  NO
Static polarizability (Dipole/Quad.)    ...  NO
Static polarizability (Quad./Quad.)     ...  NO
Static polarizability (Velocity)        ...  NO
Static hyperpolarizability              ...  NO

Atomic electric properties:
Dipole moment                           ...  NO
Quadrupole moment                       ...  NO
Static polarizability                   ...  NO

Choice of electric origin               ... Center of mass
Position of electric origin             ...    -0.035362    -0.025699    -0.031341

General magnetic properties:
Magnetizability                         ...  NO

EPR properties:
g-Tensor (aka g-matrix)                 ...  NO
Zero-Field splitting spin-orbit         ...  NO
Zero-field splitting spin-spin          ...  NO
Hyperfine couplings                     ...  NO (   0 nuclei)
Quadrupole couplings                    ...  NO (   0 nuclei)
Contact density                         ...  NO (   0 nuclei)

NMR properties:
Chemical shifts                         ...  NO (   0 nuclei)
Spin-rotation constants                 ...  NO (   0 nuclei)
Spin-spin couplings                     ...  NO (   0 nuclei,    0 pairs)

Choice of magnetic origin               ... GIAO
Position of magnetic origin             ...     0.000000     0.000000     0.000000

Properties with geometric perturbations:
SCF Hessian                             ...  NO
IR spectrum                             ...  NO
VCD spectrum                            ...  NO
X-ray spectroscopy properties:
SCF XES/XAS/RIXS spectra                ...  NO

SCF SOC stabilization energy            ...  NO
Diagonal Born-Oppenheimer correction    ...  NO

-------------
DIPOLE MOMENT
-------------

Method             : SCF
Type of density    : Electron Density
Multiplicity       :   1
Irrep              :   0
Energy             :  -297.7175947672794223 Eh
Basis              : AO
                                X                 Y                 Z
Electronic contribution:      0.003237960       0.004790070       0.776925739
Nuclear contribution   :     -0.000000000      -0.000000000      -0.000000000
                        -----------------------------------------
Total Dipole Moment    :      0.003237960       0.004790070       0.776925739
                        -----------------------------------------
Magnitude (a.u.)       :      0.776947252
Magnitude (Debye)      :      1.974842972



--------------------
Rotational spectrum 
--------------------
 
Rotational constants in cm-1:             0.058821             0.058803             0.030099 
Rotational constants in MHz :          1763.412475          1762.880266           902.336699 

Dipole components along the rotational axes: 
x,y,z [a.u.] :     0.001638    -0.000729     0.776945 
x,y,z [Debye]:     0.004163    -0.001853     1.974838 

 

Dipole moment calculation done in   0.0 sec 

Maximum memory used throughout the entire PROP-calculation: 9.6 MB

--------------------------------
SUGGESTED CITATIONS FOR THIS RUN
--------------------------------

Below you find a list of papers that are relevant to this ORCA run
We neither can nor want to force you to cite these papers, but we appreciate if you do
You receive ORCA, which is the product of decades of hard work by many enthusiastic individuals, for free
The only thing we kindly ask in return is that you cite our papers,
We deeply appreciate it, if you show your appreciation for ORCA by not just citing the generic ORCA reference.

Please note that relegating all ORCA citations to the supporting information does *not* help us.
SI sections are not indexed - citations you put there will not count into any citation statistics
But we need these citations in order to attract the funding resources that allow us to do what we are doing

Therefore, if you are a happy ORCA user, please consider citing a few of the papers listed below in the main body of your paper

In addition to the list printed below, the program has created the file quasi_planar_nn2.00_perturb0.bibtex that contains the list in bibtex format
You can import this file easily into all common literature databanks and citation aid programs

It goes without saying that in many instances, there are alternative algorithms to achieve similar
results as the ones you have gotten from ORCA. It is, of course, also the case that in some instances
ORCA just re-implements algorithms worked out by others. We are fully aware of that and we are also
fully appreciative of our colleagues work. Hence this citation list should not be read as indicating
that the listed papers, which are focused on our own work, are the only ones worth citing. It simply
meant to make it easier for users to cite ORCA specific papers. It is not a substitute for doing your
own literature research and citing the relevant literature in a scientifically appropriate manner.

List of essential papers. We consider these as the minimum necessary citations

  1. Neese, F.
     Software update: the ORCA program system, version 6.0
     WIRES Comput. Molec. Sci. 2025 15(1), e70019
     doi.org/10.1002/wcms.70019

List of papers to cite with high priority. The work reported in these papers was absolutely
necessary for this run to complete.
Our perspective: the developers of density functionals and basis sets usually get cited in chemistry papers
Good! But without the algorithms to do something with them, the functionals or basis sets would not do anything.
Hence, in our opinion, the algorithm design and method developments papers are equally worthy of getting cited

  1. Neese, F.
     An improvement of the resolution of the identity approximation for the formation of the Coulomb matrix
     J. Comp. Chem. 2003 24(14), 1740-1747
     doi.org/10.1002/jcc.10318
  2. Grimme, S.; Antony, J.; Ehrlich, S.; Krieg, H.
     A consistent and accurate ab initio parametrization of density functional dispersion correction (DFT-D) for the 94 elements H-Pu
     J. Chem. Phys. 2010 132 , 154104
     doi.org/10.1063/1.3382344
  3. Grimme, S.; Ehrlich, S.; Goerigk, L.
     Effect of the damping function in dispersion corrected density functional theory
     J. Comput. Chem. 2011 32(7), 1456-1465
     doi.org/10.1002/jcc.21759
  4. Neese, F.
     The SHARK Integral Generation and Digestion System
     J. Comp. Chem. 2022 44(3), 381
     doi.org/10.1002/jcc.26942

List of suggested additional citations. These are papers that are important in the 'surrounding' of 
of this run, or papers that preceded the highly important papers. If you like your results we are grateful for a citation.

  1. Neese, F.
     The ORCA program system
     WIRES Comput. Molec. Sci. 2012 2(1), 73-78
     doi.org/10.1002/wcms.81
  2. Neese, F.
     Software update: the ORCA program system, version 4.0
     WIRES Comput. Molec. Sci. 2018 8(1), 1-6
     doi.org/10.1002/wcms.1327
  3. Neese, F.; Wennmohs, F.; Becker, U.; Riplinger, C.
     The ORCA quantum chemistry program package
     J. Chem. Phys. 2020 152(22), 224108
     doi.org/10.1063/5.0004608
  4. Neese, F.
     Software update: The ORCA program system—Version 5.0
     WIRES Comput. Molec. Sci. 2022 12(1), e1606
     doi.org/10.1002/wcms.1606

List of optional additional citations

  1. Neese, F.
     Approximate second-order SCF convergence for spin unrestricted wavefunctions
     Chem. Phys. Lett. 2000 325(1-3), 93-98
     doi.org/10.1016/s0009-2614(00)00662-x

Timings for individual modules:

Sum of individual times          ...      672.711 sec (=  11.212 min)
Startup calculation              ...       84.816 sec (=   1.414 min)  12.6 %
SCF iterations                   ...      471.158 sec (=   7.853 min)  70.0 %
Property calculations            ...        0.954 sec (=   0.016 min)   0.1 %
SCF Gradient evaluation          ...      114.790 sec (=   1.913 min)  17.1 %
Geometry relaxation              ...        0.993 sec (=   0.017 min)   0.1 %
                             ****ORCA TERMINATED NORMALLY****
TOTAL RUN TIME: 0 days 0 hours 11 minutes 50 seconds 822 msec
