
                                 *****************
                                 * O   R   C   A *
                                 *****************

                                            #,                                       
                                            ###                                      
                                            ####                                     
                                            #####                                    
                                            ######                                   
                                           ########,                                 
                                     ,,################,,,,,                         
                               ,,#################################,,                 
                          ,,##########################################,,             
                       ,#########################################, ''#####,          
                    ,#############################################,,   '####,        
                  ,##################################################,,,,####,       
                ,###########''''           ''''###############################       
              ,#####''   ,,,,##########,,,,          '''####'''          '####       
            ,##' ,,,,###########################,,,                        '##       
           ' ,,###''''                  '''############,,,                           
         ,,##''                                '''############,,,,        ,,,,,,###''
      ,#''                                            '''#######################'''  
     '                                                          ''''####''''         
             ,#######,   #######,   ,#######,      ##                                
            ,#'     '#,  ##    ##  ,#'     '#,    #''#        ,####,    ,#,          
            ##       ##  ##   ,#'  ##            #'  '#       #'       ,# #          
            ##       ##  #######   ##           ,######,      #####,      #          
            '#,     ,#'  ##    ##  '#,     ,#' ,#      #,     #,   #      #          
             '#######'   ##     ##  '#######'  #'      '#     '####' #    #          



                #########################################################
                #                        -***-                          #
                #          Department of theory and spectroscopy        #
                #                                                       #
                #                      Frank Neese                      #
                #                                                       #
                #     Directorship, Architecture, Infrastructure        #
                #                    SHARK, DRIVERS                     #
                #        Core code/Algorithms in most modules           #
                #                                                       #
                #        Max Planck Institute fuer Kohlenforschung      #
                #                Kaiser Wilhelm Platz 1                 #
                #                 D-45470 Muelheim/Ruhr                 #
                #                      Germany                          #
                #                                                       #
                #                  All rights reserved                  #
                #                        -***-                          #
                #########################################################


                         Program Version 6.1.1  -  RELEASE   -
                                (GIT: $487d211c$)
                          ($2025-11-21 10:33:24 +0100$)
                                                                         
                                  - NO-DMRG VERSION -                    
                                                                         


 With contributions from (in alphabetic order):
[Max-Planck-Institut fuer Kohlenforschung]                               
  Daniel Aravena         : Magnetic Suceptibility                        
  Michael Atanasov       : Ab Initio Ligand Field Theory (pilot matlab implementation)
  Alexander A. Auer      : GIAO ZORA, VPT2 properties, NMR spectrum      
  Ute Becker             : All parallelization in ORCA, NUMFREQ, NUMCALC 
  Giovanni Bistoni       : ED, misc. LED, open-shell LED, HFLD           
  Dmytro Bykov           : pre 5.0 version of the SCF Hessian            
  Marcos Casanova-Páez   : Triplet and SCS-CIS(D). UHF-(DLPNO)-IP/EA/STEOM-CCSD. UHF-CVS-IP/STEOM-CCSD   
  Vijay G. Chilkuri      : MRCI spin determinant printing, contributions to CSF-ICE 
  Pauline Colinet        : FMM embedding                                 
  Dipayan Datta          : RHF DLPNO-CCSD density                        
  Achintya Kumar Dutta   : EOM-CC, STEOM-CC                              
  Nicolas Foglia         : Exact transition moments, OPA infrastructure, MCD improvements    
  Dmitry Ganyushin       : Spin-Orbit,Spin-Spin,Magnetic field MRCI      
  Miquel Garcia-Rates    : C-PCM and meta-GGA Hessian, CCSD/C-PCM, Gaussian charge scheme 
  Tiago L. C. Gouveia    : GS-ROHF, GS-ROCIS                             
  Yang Guo               : DLPNO-NEVPT2, F12-NEVPT2, CIM, IAO-localization        
  Andreas Hansen         : Spin unrestricted coupled pair/coupled cluster methods 
  Ingolf Harden          : AUTO-CI MPn and infrastructure                
  Benjamin Helmich-Paris : MC-RPA, TRAH-(SCF,CASSCF), AVAS, COSX integrals, SCF dyn. polar., MC-PDFT, srDFT 
  Lee Huntington         : MR-EOM, pCC                                   
  Robert Izsak           : Overlap fitted RIJCOSX, COSX-SCS-MP3, EOM     
  Riya Kayal             : Wick's Theorem for AUTO-CI, AUTO-CI UHF-CCSDT 
  Emily Kempfer          : AUTO-CI RHF CISDT and CCSDT, approximate NEVPT4
  Christian Kollmar      : KDIIS, OOCD, Brueckner-CCSD(T), CCSD density, CASPT2, CASPT2-K, improved NEVPT2 
  Axel Koslowski         : Symmetry handling                             
  Simone Kossmann        : meta-GGA functionals, TD-DFT gradient, OOMP2, (MP2 Hessian; deprecated post 5.0) 
  Lucas Lang             : DCDCAS, Hyperfine gauge corrections, ICE-SOC+SSC
  Marvin Lechner         : AUTO-CI (C++ implementation), FIC-MRCC        
  Spencer Leger          : CASSCF response                               
  Dagmar Lenk            : GEPOL surface, SMD, ORCA-2-JSON               
  Dimitrios Liakos       : Extrapolation schemes; Compound Job, Property file
  Dimitrios Manganas     : Further ROCIS development; embedding schemes. LFT, Crystal Embedding 
  Dimitrios Pantazis     : SARC Basis sets                               
  Anastasios Papadopoulos: AUTO-CI, single reference methods and gradients 
  Taras Petrenko         : pre 6.0 DFT Hessian and TD-DFT gradient,  ECA, NRVS 
  Petra Pikulova         : Analytic Raman intensities                    
  Peter Pinski           : DLPNO-MP2, DLPNO-MP2 Gradient                 
  Shashank Vittal Rao    : ES-AILFT, MagRelax                            
  Christoph Reimann      : Effective Core Potentials                     
  Marius Retegan         : Local ZFS, SOC                                
  Christoph Riplinger    : Optimizer, TS searches, QM/MM, DLPNO-CCSD(T), (RO)-DLPNO pert. Triples 
  Michael Roemelt        : Original ROCIS implementation, recursive CI coupling coefficients
  Masaaki Saitow         : Open-shell DLPNO-CCSD energy and density      
  Barbara Sandhoefer     : DKH picture change effects                    
  Yorick L. A. Schmerwitz: GMF and freeze-and-release deltaSCF, NEB S-IDPP initial path                    
  Kantharuban Sivalingam : CASSCF convergence/infrastructure, NEVPT2, NEVPT3, NEVPT4(SD), FIC-MRCI and CEPA variants
  Bernardo de Souza      : ESD, SOC TD-DFT                               
  Georgi L. Stoychev     : AutoAux, RI-MP2 NMR, DLPNO-MP2 response, X2C  
  Van Anh Tran           : RI-MP2 g-tensors                              
  Willem Van den Heuvel  : Paramagnetic NMR                              
  Zikuan Wang            : NOTCH, Electric field optimization            
  Frank Wennmohs         : Technical directorship and infrastructure     
  Hang Xu                : AUTO-CI-Response properties                   
                                                                         
[FACCTs GmbH]                                                            
  Markus Bursch, Nicolas Foglia, Miquel Garcia-Rates, Ingolf Harden, Hagen Neugebauer, Anastasios Papadopoulos, 
  Christoph Riplinger, Bernardo de Souza, Georgi L. Stoychev                                                    
                                                                 
  APM, various basis sets, CI-OPT, improved COSX, DLPNO-Multilevel,           
  DOCKER, DRACO, updates on ESD, Fragmentator, GOAT, IRC, LR-CPCM, L-BFGS, MBIS, meta-GGA TD-DFT gradient, ML-optimized integration grids, 
  MM, NACMEs, nearIR, NEB, NEB-TS, NL-DFT gradient (VV10), 2- and 3-layer-ONIOM, interface openCOSMO-RS, QMMM,   
  Crystal-QMMM, RESP, rigid body optimization, SF, symmetry and pop. for TD-DFT, various functionals, SOLVATOR                                   
                                                                         
[Other institutions]                                                     
  V. Asgeirsson          : NEB                                           
  Christoph Bannwarth    : sTDA-DFT, sTD-DFT, PBEh-3c, B97-3c, D3        
  Giovanni Bistoni       : ETS/NOCV, ADLD/ADEX, COVALED                  
  Martin Brehm           : Molecular dynamics                            
  Ronald Cardenas        : ETS/NOCV                                      
  Martina Colucci        : COVALED                                       
  Sebastian Ehlert       : rSCAN, r2SCAN, r2SCAN-3c, D4, dhf basis sets  
  Marvin Friede          : D4 for Fr, Ra, Ac-Lr                          
  Lars Goerigk           : TD-DFT with DH, B97 family of functionals     
  Stefan Grimme          : VdW corrections, initial TS optimization, DFT functionals, gCP, sTDA/sTD-DF 
  Waldemar Hujo          : DFT-NL                                        
  H. Jonsson             : NEB                                           
  Holger Kruse           : gCP                                           
  Marcel Mueller         : wB97X-3c, vDZP basis set                      
  Hagen Neugebauer       : wr2SCAN, Native XTB                           
  Gianluca Regni         : ADLD/ADEX                                     
  Tobias Risthaus        : pre 6.0 range-separated hybrid DFT and stability analysis
  Lukas Wittmann         : regularized MP2, r2SCAN double-hybrids, wr2SCAN        
                                                                         
We gratefully acknowledge several colleagues who have allowed us to      
interface, adapt or use parts of their codes:                            
  Ed Valeev, F. Pavosevic, A. Kumar             : LibInt (2-el integral package), F12 methods 
  Garnet Chan, S. Sharma, J. Yang, R. Olivares  : DMRG                   
  Ulf Ekstrom                                   : XCFun DFT Library      
  Mihaly Kallay                                 : mrcc  (arbitrary order and MRCC methods)
  Frank Weinhold                                : gennbo (NPA and NBO analysis)           
  Simon Mueller                                 : openCOSMO-RS                            
  Christopher J. Cramer and Donald G. Truhlar   : smd solvation model                     
  S Lehtola, MJT Oliveira, MAL Marques          : LibXC Library                           
  Liviu Ungur et al                             : ANISO software                          


 Your calculation uses the libint2 library for the computation of 2-el integrals
 For citations please refer to: http://libint.valeyev.net

 Your ORCA version has been built with support for libXC version: 7.0.0
 For citations please refer to: https://libxc.gitlab.io

 This ORCA versions uses:
   CBLAS   interface :  Fast vector & matrix operations
   LAPACKE interface :  Fast linear algebra routines
   SCALAPACK package :  Parallel linear algebra routines
   Shared memory     :  Shared parallel matrices
   BLAS/LAPACK       :  OpenBLAS 0.3.29  USE64BITINT DYNAMIC_ARCH NO_AFFINITY Zen SINGLE_THREADED
        Core in use  :  Zen
   Copyright (c) 2011-2014, The OpenBLAS Project


  ***********************************
  * Starting time: Thu Apr 23 14:55:19 2026
  * Host name:     vmi3233575
  * Process ID:    1284930
  * Working dir.:  /root/b12_scan/jobs/hex_antiprism_nn1.70_perturb2
  ***********************************

NOTE: MaxCore=2500 MB was set to SCF,MP2,MDCI,CIPSI,MRCI,RASCI and CIS
      => If you want to overwrite this, your respective input block should be placed after the MaxCore statement
Your calculation utilizes the atom-pairwise dispersion correction
with the Becke-Johnson damping scheme (D3BJ)


================================================================================

----- Orbital basis set information -----
Your calculation utilizes the basis: def2-SVP
   F. Weigend and R. Ahlrichs, Phys. Chem. Chem. Phys. 7, 3297 (2005).

----- AuxJ basis set information -----
Your calculation utilizes the auxiliary basis: def2/J
   H-Rn: F. Weigend, Phys. Chem. Chem. Phys. 8, 1057 (2006).
   Fr-Lr: K. Eichkorn, F. Weigend, O. Treutler, R. Ahlrichs; Theor. Chem. Acc. 97, 119 (1997).

================================================================================
                                        WARNINGS
                       Please study these warnings very carefully!
================================================================================


WARNING: Geometry Optimization
  ===> : Switching off AutoStart
         For restart on a previous wavefunction, please use MOREAD

================================================================================
                                       INPUT FILE
================================================================================
NAME = hex_antiprism_nn1.70_perturb2.inp
|  1> ! BP86 def2-SVP def2/J RI Opt TightSCF D3BJ
|  2> ! SlowConv
|  3> 
|  4> %pal nprocs 8 end
|  5> %maxcore 2500
|  6> 
|  7> %geom
|  8>   MaxIter 300
|  9> end
| 10> 
| 11> * xyz 0 1
| 12> B      1.81245371     -0.07841227      0.65167875
| 13> B      0.52582775      1.81502831      0.88526316
| 14> B     -0.94086128      1.66114319      0.75581988
| 15> B     -1.86716913      0.14663512      0.66705480
| 16> B     -0.94137144     -1.66389422      0.78188199
| 17> B      0.87716815     -1.46327890      0.62256043
| 18> B      1.56409638      0.75820675     -0.58741854
| 19> B      0.02820526      1.83368136     -0.65206270
| 20> B     -1.69668583      1.00952500     -0.40513286
| 21> B     -1.79083858     -1.15145957     -0.93936299
| 22> B      0.12621883     -1.76478836     -0.55188692
| 23> B      1.65343684     -0.86046208     -0.67103256
| 24> *
| 25> 
| 26>                          ****END OF INPUT****
================================================================================

                       *****************************
                       * Geometry Optimization Run *
                       *****************************

Geometry optimization settings:
Update method            Update   .... BFGS
Choice of coordinates    CoordSys .... (2022) Redundant Internals
Initial Hessian          InHess   .... Almloef's Model
Max. no of cycles        MaxIter  .... 300

Convergence Tolerances:
Energy Change            TolE     ....  5.0000e-06 Eh
Max. Gradient            TolMAXG  ....  3.0000e-04 Eh/bohr
RMS Gradient             TolRMSG  ....  1.0000e-04 Eh/bohr
Max. Displacement        TolMAXD  ....  4.0000e-03 bohr
RMS Displacement         TolRMSD  ....  2.0000e-03 bohr
Strict Convergence                .... False

------------------------------------------------------------------------------
                        ORCA OPTIMIZATION COORDINATE SETUP
------------------------------------------------------------------------------

The optimization will be done in redundant internal coordinates (2022)
Making redundant internal coordinates   ...  (2022 redundants) done
Evaluating the initial hessian          ...  (Almloef) done
Evaluating the coordinates              ...  done
Calculating the B-matrix                .... done
Calculating the G-matrix                .... done
The number of degrees of freedom        ....  198

    -----------------------------------------------------------------
                    Redundant Internal Coordinates


    -----------------------------------------------------------------
         Definition                    Initial Value    Approx d2E/dq
    -----------------------------------------------------------------
      1. B(B   2,B   1)                  1.4804         0.601354   
      2. B(B   3,B   2)                  1.7775         0.201870   
      3. B(B   4,B   3)                  2.0367         0.077901   
      4. B(B   5,B   0)                  1.6714         0.298176   
      5. B(B   5,B   4)                  1.8365         0.162562   
      6. B(B   6,B   1)                  2.0889         0.064307   
      7. B(B   6,B   0)                  1.5156         0.528473   
      8. B(B   7,B   6)                  1.8761         0.140546   
      9. B(B   7,B   2)                  1.7178         0.251372   
     10. B(B   7,B   1)                  1.6160         0.365476   
     11. B(B   8,B   7)                  1.9276         0.116344   
     12. B(B   8,B   3)                  1.3868         0.848144   
     13. B(B   8,B   2)                  1.5309         0.499527   
     14. B(B   9,B   4)                  1.9867         0.093631   
     15. B(B   9,B   3)                  2.0667         0.069769   
     16. B(B  10,B   9)                  2.0497         0.074269   
     17. B(B  10,B   5)                  1.4262         0.733762   
     18. B(B  10,B   4)                  1.7114         0.257401   
     19. B(B  11,B  10)                  1.7789         0.200885   
     20. B(B  11,B   6)                  1.6233         0.355777   
     21. B(B  11,B   5)                  1.6246         0.354050   
     22. B(B  11,B   0)                  1.5448         0.474653   
     23. A(B   5,B   0,B  11)           60.5290         0.376185   
     24. A(B   6,B   0,B  11)           64.0590         0.415902   
     25. A(B   5,B   0,B   6)          110.5757         0.383252   
     26. A(B   2,B   1,B   7)           67.2277         0.406266   
     27. A(B   6,B   1,B   7)           59.2171         0.280285   
     28. A(B   2,B   1,B   6)          112.2219         0.303107   
     29. A(B   1,B   2,B   3)          127.5331         0.366381   
     30. A(B   3,B   2,B   8)           48.8673         0.354975   
     31. A(B   3,B   2,B   7)          109.7929         0.316687   
     32. A(B   1,B   2,B   7)           60.1541         0.380497   
     33. A(B   7,B   2,B   8)           72.5275         0.368511   
     34. A(B   1,B   2,B   8)          126.8473         0.429516   
     35. A(B   8,B   3,B   9)           77.6039         0.324746   
     36. A(B   4,B   3,B   8)          122.7393         0.330703   
     37. A(B   2,B   3,B   9)          123.6908         0.259351   
     38. A(B   2,B   3,B   8)           56.2483         0.388832   
     39. A(B   4,B   3,B   9)           57.9071         0.226325   
     40. A(B   2,B   3,B   4)          121.1784         0.263656   
     41. A(B   3,B   4,B   9)           61.8038         0.235779   
     42. A(B   5,B   4,B  10)           47.2434         0.306961   
     43. A(B   3,B   4,B   5)          110.3717         0.255301   
     44. A(B   9,B   4,B  10)           66.8410         0.281375   
     45. A(B   3,B   4,B  10)          106.9791         0.273531   
     46. A(B   5,B   4,B   9)          108.6668         0.262370   
     47. A(B  10,B   5,B  11)           70.9949         0.418506   
     48. A(B   4,B   5,B  11)          125.6446         0.323270   
     49. A(B   4,B   5,B  10)           61.7687         0.365281   
     50. A(B   0,B   5,B  10)          118.9568         0.405942   
     51. A(B   0,B   5,B   4)          130.0252         0.314338   
     52. A(B   0,B   5,B  11)           55.8778         0.357749   
     53. A(B   1,B   6,B  11)          124.6208         0.279124   
     54. A(B   0,B   6,B   1)           77.5456         0.296937   
     55. A(B   1,B   6,B   7)           47.7304         0.243078   
     56. A(B   7,B   6,B  11)          127.9445         0.315929   
     57. A(B   0,B   6,B  11)           58.8454         0.395253   
     58. A(B   0,B   6,B   7)          118.6047         0.337191   
     59. A(B   1,B   7,B   6)           73.0525         0.317315   
     60. A(B   6,B   7,B   8)          118.8861         0.265205   
     61. A(B   2,B   7,B   8)           49.2514         0.289987   
     62. A(B   1,B   7,B   2)           52.6182         0.349426   
     63. A(B   1,B   7,B   8)           98.5550         0.307755   
     64. A(B   2,B   7,B   6)          112.0864         0.298771   
     65. A(B   3,B   8,B   7)          118.3651         0.353673   
     66. A(B   2,B   8,B   7)           58.2211         0.323786   
     67. A(B   2,B   8,B   3)           74.8844         0.457077   
     68. A(B   4,B   9,B  10)           50.1435         0.234202   
     69. A(B   3,B   9,B  10)           94.3327         0.224849   
     70. A(B   3,B   9,B   4)           60.2891         0.232162   
     71. A(B   9,B  10,B  11)          129.6563         0.261587   
     72. A(B   5,B  10,B  11)           59.7116         0.378840   
     73. A(B   4,B  10,B  11)          123.9032         0.317658   
     74. A(B   5,B  10,B   9)          125.7924         0.320392   
     75. A(B   4,B  10,B   9)           63.0155         0.271548   
     76. A(B   4,B  10,B   5)           70.9878         0.395567   
     77. A(B   6,B  11,B  10)          117.1436         0.335038   
     78. A(B   5,B  11,B  10)           49.2935         0.334767   
     79. A(B   0,B  11,B  10)          106.7612         0.351627   
     80. A(B   5,B  11,B   6)          107.6190         0.368710   
     81. A(B   0,B  11,B   6)           57.0956         0.387898   
     82. A(B   0,B  11,B   5)           63.5932         0.387569   
     83. D(B   3,B   2,B   1,B   7)     92.9527         0.018232   
     84. D(B   8,B   2,B   1,B   7)     30.3963         0.018232   
     85. D(B   7,B   2,B   1,B   6)    -39.5485         0.018232   
     86. D(B   3,B   2,B   1,B   6)     53.4043         0.018232   
     87. D(B   8,B   2,B   1,B   6)     -9.1522         0.018232   
     88. D(B   4,B   3,B   2,B   1)      1.3942         0.010000   
     89. D(B   8,B   3,B   2,B   1)   -109.4554         0.010000   
     90. D(B   9,B   3,B   2,B   1)    -68.5505         0.010000   
     91. D(B   4,B   3,B   2,B   7)     68.4084         0.010000   
     92. D(B   8,B   3,B   2,B   7)    -42.4411         0.010000   
     93. D(B   4,B   3,B   2,B   8)    110.8495         0.010000   
     94. D(B   5,B   4,B   3,B   9)    100.8543         0.010000   
     95. D(B   5,B   4,B   3,B   2)    -11.8411         0.010000   
     96. D(B   9,B   4,B   3,B   2)   -112.6953         0.010000   
     97. D(B   5,B   4,B   3,B   8)     55.6404         0.010000   
     98. D(B   9,B   4,B   3,B   8)    -45.2138         0.010000   
     99. D(B  10,B   4,B   3,B   2)    -61.7650         0.010000   
    100. D(B   0,B   5,B   4,B   9)     76.8380         0.010000   
    101. D(B  10,B   5,B   4,B   9)    -28.6297         0.010000   
    102. D(B   0,B   5,B   4,B   3)     10.8264         0.010000   
    103. D(B  11,B   5,B   0,B   6)     41.5106         0.010000   
    104. D(B  10,B   5,B   0,B  11)    -34.4602         0.010000   
    105. D(B  11,B   5,B   4,B   3)    -61.7654         0.010000   
    106. D(B  10,B   5,B   0,B   6)      7.0504         0.010000   
    107. D(B   0,B   5,B   4,B  10)    105.4677         0.010000   
    108. D(B   4,B   5,B   0,B   6)    -68.9877         0.010000   
    109. D(B  10,B   5,B   4,B   3)    -94.6413         0.010000   
    110. D(B   4,B   5,B   0,B  11)   -110.4983         0.010000   
    111. D(B   1,B   6,B   0,B  11)    144.4305         0.014104   
    112. D(B   7,B   6,B   0,B   5)     79.3436         0.014104   
    113. D(B   1,B   6,B   0,B   5)    104.5155         0.014104   
    114. D(B  11,B   6,B   1,B   2)    -69.3629         0.010000   
    115. D(B  11,B   6,B   1,B   7)   -112.4710         0.010000   
    116. D(B   7,B   6,B   1,B   2)     43.1081         0.010000   
    117. D(B   0,B   6,B   1,B   2)   -106.5850         0.010000   
    118. D(B   0,B   6,B   1,B   7)   -149.6931         0.010000   
    119. D(B   7,B   6,B   0,B  11)    119.2585         0.014104   
    120. D(B  11,B   6,B   0,B   5)    -39.9149         0.014104   
    121. D(B   2,B   7,B   6,B  11)     69.3170         0.010000   
    122. D(B   8,B   7,B   6,B   0)    -56.4004         0.010000   
    123. D(B   2,B   7,B   6,B   1)    -36.0404         0.010000   
    124. D(B   2,B   7,B   6,B   0)     -1.8973         0.010000   
    125. D(B   1,B   7,B   6,B  11)    105.3574         0.010000   
    126. D(B   1,B   7,B   6,B   0)     34.1431         0.010000   
    127. D(B   8,B   7,B   2,B   1)    154.8818         0.010000   
    128. D(B   1,B   7,B   2,B   8)   -154.8818         0.010000   
    129. D(B   1,B   7,B   2,B   3)   -122.6828         0.010000   
    130. D(B   8,B   7,B   1,B   6)    117.7000         0.010000   
    131. D(B   6,B   7,B   2,B   3)    -77.5877         0.010000   
    132. D(B   8,B   7,B   1,B   2)    -18.9778         0.010000   
    133. D(B   6,B   7,B   1,B   2)   -136.6777         0.010000   
    134. D(B   6,B   7,B   2,B   1)     45.0952         0.010000   
    135. D(B   2,B   7,B   1,B   6)    136.6777         0.010000   
    136. D(B   6,B   7,B   2,B   8)   -109.7867         0.010000   
    137. D(B   7,B   8,B   3,B   4)    -68.0729         0.037472   
    138. D(B   7,B   8,B   3,B   2)     40.0230         0.037472   
    139. D(B   2,B   8,B   3,B   9)   -146.0941         0.037472   
    140. D(B   2,B   8,B   3,B   4)   -108.0959         0.037472   
    141. D(B   7,B   8,B   2,B   3)   -138.2656         0.012647   
    142. D(B   3,B   8,B   2,B   7)    138.2656         0.012647   
    143. D(B   7,B   8,B   2,B   1)    -27.3933         0.012647   
    144. D(B   7,B   8,B   3,B   9)   -106.0710         0.037472   
    145. D(B   3,B   8,B   2,B   1)    110.8722         0.012647   
    146. D(B   3,B   8,B   7,B   6)     48.3348         0.010000   
    147. D(B   3,B   8,B   7,B   2)    -46.9143         0.010000   
    148. D(B   3,B   8,B   7,B   1)    -26.9706         0.010000   
    149. D(B   2,B   8,B   7,B   6)     95.2490         0.010000   
    150. D(B   2,B   8,B   7,B   1)     19.9436         0.010000   
    151. D(B  10,B   9,B   4,B   5)     22.4977         0.010000   
    152. D(B  10,B   9,B   4,B   3)    126.1360         0.010000   
    153. D(B   3,B   9,B   4,B  10)   -126.1360         0.010000   
    154. D(B   3,B   9,B   4,B   5)   -103.6384         0.010000   
    155. D(B  10,B   9,B   3,B   8)    103.8768         0.010000   
    156. D(B  10,B   9,B   3,B   4)    -38.4438         0.010000   
    157. D(B  10,B   9,B   3,B   2)     69.9982         0.010000   
    158. D(B   4,B   9,B   3,B   8)    142.3207         0.010000   
    159. D(B   4,B   9,B   3,B   2)    108.4420         0.010000   
    160. D(B  11,B  10,B   9,B   4)   -113.0135         0.010000   
    161. D(B  11,B  10,B   9,B   3)    -68.3084         0.010000   
    162. D(B   5,B  10,B   9,B   4)    -35.1332         0.010000   
    163. D(B   4,B  10,B   9,B   3)     44.7051         0.010000   
    164. D(B  11,B  10,B   5,B   0)     29.6979         0.029559   
    165. D(B   9,B  10,B   5,B  11)   -119.3410         0.029559   
    166. D(B   9,B  10,B   5,B   4)     32.8482         0.029559   
    167. D(B   9,B  10,B   5,B   0)    -89.6430         0.029559   
    168. D(B   4,B  10,B   5,B  11)   -152.1892         0.029559   
    169. D(B   4,B  10,B   5,B   0)   -122.4912         0.029559   
    170. D(B  11,B  10,B   4,B   5)    -29.0383         0.010000   
    171. D(B  11,B  10,B   4,B   3)     73.2834         0.010000   
    172. D(B   5,B  10,B   9,B   3)      9.5719         0.010000   
    173. D(B   9,B  10,B   4,B   5)   -150.4141         0.010000   
    174. D(B   9,B  10,B   4,B   3)    -48.0924         0.010000   
    175. D(B   5,B  10,B   4,B   9)    150.4141         0.010000   
    176. D(B   5,B  10,B   4,B   3)    102.3217         0.010000   
    177. D(B   6,B  11,B  10,B   4)    -58.3327         0.010000   
    178. D(B   5,B  11,B  10,B   9)    113.3023         0.010000   
    179. D(B   5,B  11,B  10,B   4)     32.1042         0.010000   
    180. D(B   0,B  11,B  10,B   9)     83.9740         0.010000   
    181. D(B   0,B  11,B  10,B   5)    -29.3283         0.010000   
    182. D(B  10,B  11,B   6,B   0)     93.1109         0.010000   
    183. D(B   5,B  11,B   6,B   7)    -63.3482         0.010000   
    184. D(B   5,B  11,B   6,B   1)     -3.2246         0.010000   
    185. D(B   5,B  11,B   6,B   0)     40.4228         0.010000   
    186. D(B   0,B  11,B   6,B   7)   -103.7710         0.010000   
    187. D(B   0,B  11,B   6,B   1)    -43.6474         0.010000   
    188. D(B  10,B  11,B   5,B   0)   -148.4233         0.010000   
    189. D(B   6,B  11,B   5,B  10)    110.9911         0.010000   
    190. D(B   6,B  11,B   5,B   4)     80.6051         0.010000   
    191. D(B   6,B  11,B   5,B   0)    -37.4322         0.010000   
    192. D(B   0,B  11,B  10,B   4)      2.7760         0.010000   
    193. D(B   0,B  11,B   5,B  10)    148.4233         0.010000   
    194. D(B   0,B  11,B   5,B   4)    118.0373         0.010000   
    195. D(B  10,B  11,B   0,B   6)   -111.8780         0.011475   
    196. D(B  10,B  11,B   0,B   5)     24.4918         0.011475   
    197. D(B   6,B  11,B   0,B   5)    136.3698         0.011475   
    198. D(B   5,B  11,B   0,B   6)   -136.3698         0.011475   
    -----------------------------------------------------------------

Number of atoms                         .... 12
Number of degrees of freedom            .... 198


         *************************************************************
         *                GEOMETRY OPTIMIZATION CYCLE   1            *
         *************************************************************
---------------------------------
CARTESIAN COORDINATES (ANGSTROEM)
---------------------------------
  B      1.812454   -0.078412    0.651679
  B      0.525828    1.815028    0.885263
  B     -0.940861    1.661143    0.755820
  B     -1.867169    0.146635    0.667055
  B     -0.941371   -1.663894    0.781882
  B      0.877168   -1.463279    0.622560
  B      1.564096    0.758207   -0.587419
  B      0.028205    1.833681   -0.652063
  B     -1.696686    1.009525   -0.405133
  B     -1.790839   -1.151460   -0.939363
  B      0.126219   -1.764788   -0.551887
  B      1.653437   -0.860462   -0.671033

----------------------------
CARTESIAN COORDINATES (A.U.)
----------------------------
  NO LB      ZA    FRAG     MASS         X           Y           Z
   0 B     5.0000    0    10.810    3.425041   -0.148178    1.231494
   1 B     5.0000    0    10.810    0.993670    3.429906    1.672905
   2 B     5.0000    0    10.810   -1.777970    3.139106    1.428293
   3 B     5.0000    0    10.810   -3.528438    0.277100    1.260551
   4 B     5.0000    0    10.810   -1.778934   -3.144304    1.477543
   5 B     5.0000    0    10.810    1.657608   -2.765196    1.176469
   6 B     5.0000    0    10.810    2.955714    1.432803   -1.110060
   7 B     5.0000    0    10.810    0.053300    3.465156   -1.232220
   8 B     5.0000    0    10.810   -3.206272    1.907726   -0.765590
   9 B     5.0000    0    10.810   -3.384194   -2.175943   -1.775139
  10 B     5.0000    0    10.810    0.238519   -3.334967   -1.042915
  11 B     5.0000    0    10.810    3.124543   -1.626038   -1.268068

--------------------------------
INTERNAL COORDINATES (ANGSTROEM)
--------------------------------
 B      0   0   0     0.000000000000     0.00000000     0.00000000
 B      1   0   0     2.301105227392     0.00000000     0.00000000
 B      2   1   0     1.480409708026   117.35767142     0.00000000
 B      3   2   1     1.777543295252   127.53307282     9.45709771
 B      4   3   2     2.036738357613   121.17844521     1.39416536
 B      1   2   3     1.671365471162   111.75709259   350.01834299
 B      1   2   3     1.515577395607    62.42870797    92.63858590
 B      2   1   3     1.615966236854    94.88227077   293.15396767
 B      4   3   2     1.386805638452    56.24830106   250.54462398
 B      5   4   3     1.986672588434    61.80383991   247.30467217
 B      6   1   2     1.426239605957   118.95677795    74.56237706
 B      1   2   3     1.544815030956   116.48196285    56.87792052

---------------------------
INTERNAL COORDINATES (A.U.)
---------------------------
 B      0   0   0     0.000000000000     0.00000000     0.00000000
 B      1   0   0     4.348458685106     0.00000000     0.00000000
 B      2   1   0     2.797568914167   117.35767142     0.00000000
 B      3   2   1     3.359070019214   127.53307282     9.45709771
 B      4   3   2     3.848877702342   121.17844521     1.39416536
 B      1   2   3     3.158423010188   111.75709259   350.01834299
 B      1   2   3     2.864026212459    62.42870797    92.63858590
 B      2   1   3     3.053733629318    94.88227077   293.15396767
 B      4   3   2     2.620682857652    56.24830106   250.54462398
 B      5   4   3     3.754267109909    61.80383991   247.30467217
 B      6   1   2     2.695202256610   118.95677795    74.56237706
 B      1   2   3     2.919277336072   116.48196285    56.87792052

---------------------
BASIS SET INFORMATION
---------------------
There are 1 groups of distinct atoms

 Group   1 Type B   : 7s4p1d contracted to 3s2p1d pattern {511/31/1}

Atom   0B    basis set group =>   1
Atom   1B    basis set group =>   1
Atom   2B    basis set group =>   1
Atom   3B    basis set group =>   1
Atom   4B    basis set group =>   1
Atom   5B    basis set group =>   1
Atom   6B    basis set group =>   1
Atom   7B    basis set group =>   1
Atom   8B    basis set group =>   1
Atom   9B    basis set group =>   1
Atom  10B    basis set group =>   1
Atom  11B    basis set group =>   1
---------------------------------
AUXILIARY/J BASIS SET INFORMATION
---------------------------------
There are 1 groups of distinct atoms

 Group   1 Type B   : 12s5p4d2f1g contracted to 6s4p3d1f1g pattern {711111/2111/211/2/1}

Atom   0B    basis set group =>   1
Atom   1B    basis set group =>   1
Atom   2B    basis set group =>   1
Atom   3B    basis set group =>   1
Atom   4B    basis set group =>   1
Atom   5B    basis set group =>   1
Atom   6B    basis set group =>   1
Atom   7B    basis set group =>   1
Atom   8B    basis set group =>   1
Atom   9B    basis set group =>   1
Atom  10B    basis set group =>   1
Atom  11B    basis set group =>   1


           ************************************************************
           *        Program running with 8 parallel MPI-processes     *
           *              working on a common directory               *
           ************************************************************
------------------------------------------------------------------------------
                             ORCA STARTUP CALCULATIONS
                           -- RI-GTO INTEGRALS CHOSEN --
------------------------------------------------------------------------------
------------------------------------------------------------------------------
                   ___                                                        
                  /   \      - P O W E R E D   B Y -                         
                 /     \                                                     
                 |  |  |   _    _      __       _____    __    __             
                 |  |  |  | |  | |    /  \     |  _  \  |  |  /  |          
                  \  \/   | |  | |   /    \    | | | |  |  | /  /          
                 / \  \   | |__| |  /  /\  \   | |_| |  |  |/  /          
                |  |  |   |  __  | /  /__\  \  |    /   |      \           
                |  |  |   | |  | | |   __   |  |    \   |  |\   \          
                \     /   | |  | | |  |  |  |  | |\  \  |  | \   \       
                 \___/    |_|  |_| |__|  |__|  |_| \__\ |__|  \__/        
                                                                              
                      - O R C A' S   B I G   F R I E N D -                    
                                      &                                       
                       - I N T E G R A L  F E E D E R -                       
                                                                              
 v1 FN, 2020, v2 2021, v3 2022-2024                                           
------------------------------------------------------------------------------


----------------------
SHARK INTEGRAL PACKAGE
----------------------

Number of atoms                             ...     12
Number of basis functions                   ...    168
Number of shells                            ...     72
Maximum angular momentum                    ...      2
Integral batch strategy                     ... SHARK/LIBINT Hybrid
RI-J (if used) integral strategy            ... SPLIT-RIJ (Revised 2003 algorithm where possible)
Printlevel                                  ...      1
Contraction scheme used                     ... SEGMENTED contraction
Prescreening option                         ... SCHWARTZ
   Thresh                                   ... 2.500e-11
   Tcut                                     ... 2.500e-12
   Tpresel                                  ... 2.500e-12 
Coulomb Range Separation                    ... NOT USED
Exchange Range Separation                   ... NOT USED
Multipole approximations                    ... NOT USED
Finite Nucleus Model                        ... NOT USED
CABS basis                                  ... NOT available
Auxiliary Coulomb fitting basis             ... AVAILABLE
   # of basis functions in Aux-J            ...    588
   # of shells in Aux-J                     ...    180
   Maximum angular momentum in Aux-J        ...      4
Auxiliary J/K fitting basis                 ... NOT available
Auxiliary Correlation fitting basis         ... NOT available
Auxiliary 'external' fitting basis          ... NOT available

Checking pre-screening integrals            ... done (  0.0 sec) Dimension = 72
   => SHARK Basis and OBASIS are compatible. Storing Pre-screening
Shell pair information
Shell pair cut-off parameter TPreSel        ...   2.5e-12
Total number of shell pairs                 ...      2628
Shell pairs after pre-screening             ...      2586
Total number of primitive shell pairs       ...     10596
Primitive shell pairs kept                  ...      7945
          la=0 lb=0:    624 shell pairs
          la=1 lb=0:    864 shell pairs
          la=1 lb=1:    300 shell pairs
          la=2 lb=0:    432 shell pairs
          la=2 lb=1:    288 shell pairs
          la=2 lb=2:     78 shell pairs

Checking whether 4 symmetric matrices of dimension 168 fit in memory
:Max Core in MB      =   2500.00
 MB in use           =      6.92
 MB left             =   2493.08
 MB needed           =      0.43
 Data fit in memory  = YES
Calculating RI/J V-Matrix + Cholesky decomp.... done (  0.0 sec)
Calculating Nuclear repulsion               ... done (  0.0 sec) ENN=    347.020660208656 Eh

Diagonalization of the overlap matrix:
Smallest eigenvalue                        ... 1.224e-04
Time for diagonalization                   ...    0.006 sec
Threshold for overlap eigenvalues          ... 1.000e-07
Number of eigenvalues below threshold      ... 0
Time for construction of square roots      ...    0.002 sec
Total time needed                          ...    0.010 sec

-------------------
DFT GRID GENERATION
-------------------

General Integration Accuracy     IntAcc      ... 4.388
Radial Grid Type                 RadialGrid  ... OptM3 with GC (2021)
Angular Grid (max. ang.)         AngularGrid ... 4 (Lebedev-302)
Angular grid pruning method      GridPruning ... 4 (adaptive)
Weight generation scheme         WeightScheme... mBecke (2022)
Basis function cutoff            BFCut       ... 1.0000e-11
Integration weight cutoff        WCut        ... 1.0000e-14
Partially contracted basis set               ... off
Rotationally invariant grid construction     ... off
Angular grids for H and He will be reduced by one unit

Total number of grid points                  ...    70932
Total number of batches                      ...     1114
Average number of points per batch           ...       63
Average number of grid points per atom       ...     5911
Grids setup in   0.7 sec
Initializing property integral containers    ... done (  0.0 sec)

SHARK setup successfully completed in   0.9 seconds

Maximum memory used throughout the entire STARTUP-calculation: 19.9 MB


           ************************************************************
           *        Program running with 8 parallel MPI-processes     *
           *              working on a common directory               *
           ************************************************************
-------------------------------------------------------------------------------
                                 ORCA GUESS
                   Start orbitals & Density for SCF / CASSCF
-------------------------------------------------------------------------------

------------
SCF SETTINGS
------------
Hamiltonian:
 Density Functional     Method          .... DFT(GTOs)
 Exchange Functional    Exchange        .... B88
   X-Alpha parameter    XAlpha          ....  0.666667
   Becke's b parameter  XBeta           ....  0.004200
 Correlation Functional Correlation     .... P86
 LDA part of GGA corr.  LDAOpt          .... PW91-LDA
 Gradients option       PostSCFGGA      .... off
   NL short-range parameter             ....  4.400000
 RI-approximation to the Coulomb term is turned on
   Number of AuxJ basis functions       .... 588


General Settings:
 Integral files         IntName         .... hex_antiprism_nn1.70_perturb2
 Hartree-Fock type      HFTyp           .... RHF
 Total Charge           Charge          ....    0
 Multiplicity           Mult            ....    1
 Number of Electrons    NEL             ....   60
 Basis Dimension        Dim             ....  168
 Nuclear Repulsion      ENuc            ....    347.0206602087 Eh

Convergence Acceleration:
 AO-DIIS                CNVDIIS         .... on
   Start iteration      DIISMaxIt       ....     0
   Startup error        DIISStart       ....  0.200000
   # of expansion vecs  DIISMaxEq       ....     5
   Bias factor          DIISBfac        ....   1.050
   Max. coefficient     DIISMaxC        ....  10.000
 MO-DIIS                CNVKDIIS        .... off
 Trust-Rad. Augm. Hess. CNVTRAH         .... auto
   Auto Start mean grad. ratio tolernc. ....  1.125000
   Auto Start start iteration           ....    50
   Auto Start num. interpolation iter.  ....    10
   Max. Number of Micro iterations      ....    24
   Max. Number of Macro iterations      .... Maxiter - #DIIS iter
   Number of Davidson start vectors     ....     2
   Converg. threshold    (grad. norm)   ....   1.000e-05
   Grad. Scal. Fac. for Micro threshold ....   0.100
   Minimum threshold for Micro iter.    ....   1.000e-02
   NR start threshold (gradient norm)   ....   1.000e-04
   Initial trust radius                 ....   0.400
   Minimum AH scaling param. (alpha)    ....   1.000
   Maximum AH scaling param. (alpha)    .... 1000.000
   Quad. conv. algorithm                .... NR
   White noise on init. David. guess    .... on
   Maximum white noise                  ....   0.010
   Pseudo random numbers                .... off
   Inactive MOs                         .... canonical
   Orbital update algorithm             .... Taylor
   Preconditioner                       .... Diag
   Full preconditioner red. dimension   ....   250
 SOSCF                 CNVSOSCF           .... on
   Start iteration     SOSCFMaxIt         ....   150
   Startup grad/error  SOSCFStart         ....  0.001000
   Hessian update      SOSCFHessUp        .... L-BFGS
   Autom. constraints  SOSCFAutoConstrain .... off
 Level Shifting         CNVShift        .... on
   Level shift para.    LevelShift      ....    0.2500
   Turn off err/grad.   ShiftErr        ....    0.0000
 Zerner damping         CNVZerner       .... off
 Static damping         CNVDamp         .... on
   Fraction old density DampFac         ....    0.8500
   Max. Damping (<1)    DampMax         ....    0.9800
   Min. Damping (>=0)   DampMin         ....    0.0000
   Turn off err/grad.   DampErr         ....    0.0300

SCF Procedure:
 Maximum # iterations   MaxIter         ....   125
 SCF integral mode      SCFMode         .... Direct
   Integral package                     .... SHARK and LIBINT hybrid scheme
 Reset frequency        DirectResetFreq ....    20
 Integral Threshold     Thresh          ....  2.500e-11 Eh
 Primitive CutOff       TCut            ....  2.500e-12 Eh

Convergence Tolerance:
 Convergence Check Mode ConvCheckMode   .... Total+1el-Energy
 Convergence forced     ConvForced      .... 0
 Energy Change          TolE            ....  1.000e-08 Eh
 1-El. energy change                    ....  1.000e-05 Eh
 Orbital Gradient       TolG            ....  1.000e-05
 Orbital Rotation angle TolX            ....  1.000e-05
 DIIS Error             TolErr          ....  5.000e-07

------------------------------
INITIAL GUESS: MODEL POTENTIAL
------------------------------
Loading Hartree-Fock densities                     ... done
Calculating cut-offs                               ... done
Initializing the effective Hamiltonian             ... done
Setting up the integral package (SHARK)            ... done
Starting the Coulomb interaction                   ... done (   0.0 sec)
Making the grid                                    ... done (   0.1 sec)
Mapping shells                                     ... done
Starting the XC term evaluation                    ... done (   0.1 sec)
  promolecular density results
     # of electrons  =     60.001089899
     EX              =    -45.784856373
     EC              =     -1.993013971
     EX+EC           =    -47.777870345
Transforming the Hamiltonian                       ... done (   0.0 sec)
Diagonalizing the Hamiltonian                      ... done (   0.0 sec)
Back transforming the eigenvectors                 ... done (   0.0 sec)
Now organizing SCF variables                       ... done
                      ------------------
                      INITIAL GUESS DONE (   0.3 sec)
                      ------------------
             **** ENERGY FILE WAS UPDATED (hex_antiprism_nn1.70_perturb2.en.tmp) ****
Finished Guess after   0.8 sec
Maximum memory used throughout the entire GUESS-calculation: 9.7 MB


           ************************************************************
           *        Program running with 8 parallel MPI-processes     *
           *              working on a common directory               *
           ************************************************************

-------------------------------------------------------------------------------------------
                                      ORCA LEAN-SCF
                              memory conserving SCF solver
-------------------------------------------------------------------------------------------

----------------------------------------D-I-I-S--------------------------------------------
Iteration    Energy (Eh)           Delta-E    RMSDP     MaxDP     DIISErr   Damp  Time(sec)
-------------------------------------------------------------------------------------------
               ***  Starting incremental Fock matrix formation  ***
    1    -296.2647290847681916     0.00e+00  2.85e-02  2.91e-01  2.19e-01  0.850   0.4
Warning: op=0 Small HOMO/LUMO gap (  -0.036) - skipping pre-diagonalization
         Will do a full diagonalization
    2    -296.6869605593325332    -4.22e-01  1.82e-02  1.52e-01  1.13e-01  0.850   0.4
                               ***Turning on AO-DIIS***
    3    -296.8180030264743436    -1.31e-01  1.26e-02  1.13e-01  6.81e-02  0.850   0.3
    4    -296.8875025351899239    -6.95e-02  1.09e-02  9.09e-02  4.59e-02  0.850   0.3
    5    -296.9502146478549776    -6.27e-02  9.32e-03  7.55e-02  3.46e-02  0.850   0.3
    6    -297.0039668712564662    -5.38e-02  7.87e-03  6.26e-02  2.71e-02  0.850   0.3
    7    -297.0486989549066266    -4.47e-02  4.35e-02  3.66e-01  2.16e-02  0.000   0.3
    8    -297.2835110601192810    -2.35e-01  7.81e-03  5.66e-02  1.49e-02  0.000   0.3
    9    -297.2890128723158796    -5.50e-03  3.98e-03  2.85e-02  4.71e-03  0.000   0.5
   10    -297.2906165795124025    -1.60e-03  2.49e-03  1.75e-02  2.68e-03  0.000   0.4
   11    -297.2915439025150590    -9.27e-04  2.32e-03  1.97e-02  2.44e-03  0.000   0.3
   12    -297.2922080904019140    -6.64e-04  2.42e-03  2.40e-02  2.12e-03  0.000   0.4
   13    -297.2926723152538671    -4.64e-04  1.58e-03  1.16e-02  1.92e-03  0.000   0.4
   14    -297.2930427125220376    -3.70e-04  1.25e-03  8.62e-03  1.74e-03  0.000   0.3
   15    -297.2933511126124131    -3.08e-04  1.50e-03  1.39e-02  1.66e-03  0.000   0.7
   16    -297.2935797276991252    -2.29e-04  1.22e-03  1.15e-02  1.44e-03  0.000   0.5
   17    -297.2937818208270073    -2.02e-04  9.91e-04  7.88e-03  1.36e-03  0.000   0.4
   18    -297.2939413920653351    -1.60e-04  9.69e-04  7.18e-03  1.22e-03  0.000   0.3
   19    -297.2940868004802724    -1.45e-04  7.23e-04  4.13e-03  1.16e-03  0.000   0.3
   20    -297.2942167582328921    -1.30e-04  8.33e-04  7.72e-03  1.05e-03  0.000   0.3
               *** Restarting incremental Fock matrix formation ***
                             ****Resetting DIIS****
Warning: op=0 Small HOMO/LUMO gap (   0.007) - skipping pre-diagonalization
         Will do a full diagonalization
                              *** Initializing SOSCF ***
---------------------------------------S-O-S-C-F--------------------------------------
Iteration    Energy (Eh)           Delta-E    RMSDP     MaxDP     MaxGrad    Time(sec)
--------------------------------------------------------------------------------------
   21    -297.2943237203239732    -1.07e-04  3.10e-03  2.30e-02  9.13e-04     0.4
               *** Restarting incremental Fock matrix formation ***
   22    -297.2946059404147263    -2.82e-04  1.95e-03  1.28e-02  1.61e-03     0.3
   23    -297.2941826691180722     4.23e-04  1.19e-03  6.54e-03  3.56e-03     0.3
   24    -297.2947715671944025    -5.89e-04  1.05e-03  6.22e-03  9.33e-04     0.3
   25    -297.2947908188413066    -1.93e-05  1.38e-03  1.07e-02  1.13e-03     0.4
   26    -297.2948863071418373    -9.55e-05  2.14e-03  1.64e-02  3.68e-04     0.3
   27    -297.2948997192979732    -1.34e-05  5.01e-04  2.80e-03  6.35e-04     0.4
   28    -297.2949314671803904    -3.17e-05  4.77e-04  3.40e-03  2.32e-04     0.3
   29    -297.2949295356017956     1.93e-06  2.07e-04  1.40e-03  3.37e-04     0.4
   30    -297.2949371588142640    -7.62e-06  1.99e-04  1.04e-03  1.20e-04     0.4
   31    -297.2949371254552489     3.34e-08  1.07e-04  1.13e-03  1.20e-04     0.4
   32    -297.2949387808506572    -1.66e-06  1.18e-04  1.25e-03  4.62e-05     0.5
   33    -297.2949391077722794    -3.27e-07  9.49e-05  9.78e-04  3.98e-05     0.4
   34    -297.2949392868998757    -1.79e-07  3.30e-05  1.88e-04  2.78e-05     0.5
   35    -297.2949393201027988    -3.32e-08  1.67e-05  1.62e-04  1.79e-05     0.4
   36    -297.2949393373291969    -1.72e-08  1.27e-05  1.12e-04  8.90e-06     0.3
   37    -297.2949393429115617    -5.58e-09  5.95e-06  3.23e-05  3.70e-06     0.3
                 **** Energy Check signals convergence ****

               *****************************************************
               *                     SUCCESS                       *
               *           SCF CONVERGED AFTER  37 CYCLES          *
               *****************************************************

             **** ENERGY FILE WAS UPDATED (hex_antiprism_nn1.70_perturb2.en.tmp) ****

----------------
TOTAL SCF ENERGY
----------------

Total Energy       :       -297.29493934431662 Eh           -8089.80658 eV

Components:
Nuclear Repulsion  :        347.02066020865595 Eh            9442.91223 eV
Electronic Energy  :       -644.31559955297257 Eh          -17532.71881 eV
One Electron Energy:      -1082.02461064292129 Eh          -29443.38653 eV
Two Electron Energy:        437.70901108994877 Eh           11910.66772 eV

Virial components:
Potential Energy   :       -590.43903717303203 Eh          -16066.66301 eV
Kinetic Energy     :        293.14409782871542 Eh            7976.85644 eV
Virial Ratio       :          2.01415973081616

DFT components:
N(Alpha)           :       29.999951472158 electrons
N(Beta)            :       29.999951472158 electrons
N(Total)           :       59.999902944315 electrons
E(X)               :      -46.278628979853 Eh       
E(C)               :       -2.023341740301 Eh       
E(XC)              :      -48.301970720153 Eh       

---------------
SCF CONVERGENCE
---------------

  Last Energy change         ...    5.5824e-09  Tolerance :   1.0000e-08
  Last MAX-Density change    ...    3.2266e-05  Tolerance :   1.0000e-07
  Last RMS-Density change    ...    5.9544e-06  Tolerance :   5.0000e-09
  Last DIIS Error            ...    9.1297e-04  Tolerance :   5.0000e-07
  Last Orbital Gradient      ...    3.7038e-06  Tolerance :   1.0000e-05
  Last Orbital Rotation      ...    3.8954e-05  Tolerance :   1.0000e-05


----------------
ORBITAL ENERGIES
----------------

  NO   OCC          E(Eh)            E(eV) 
   0   2.0000      -6.624096      -180.2508 
   1   2.0000      -6.605554      -179.7463 
   2   2.0000      -6.595398      -179.4699 
   3   2.0000      -6.594539      -179.4465 
   4   2.0000      -6.590069      -179.3249 
   5   2.0000      -6.587751      -179.2618 
   6   2.0000      -6.587709      -179.2607 
   7   2.0000      -6.580648      -179.0685 
   8   2.0000      -6.577766      -178.9901 
   9   2.0000      -6.570979      -178.8054 
  10   2.0000      -6.567899      -178.7216 
  11   2.0000      -6.563350      -178.5978 
  12   2.0000      -0.684060       -18.6142 
  13   2.0000      -0.645130       -17.5549 
  14   2.0000      -0.588364       -16.0102 
  15   2.0000      -0.528480       -14.3807 
  16   2.0000      -0.490272       -13.3410 
  17   2.0000      -0.399088       -10.8597 
  18   2.0000      -0.396515       -10.7897 
  19   2.0000      -0.385650       -10.4941 
  20   2.0000      -0.357399        -9.7253 
  21   2.0000      -0.337744        -9.1905 
  22   2.0000      -0.317976        -8.6526 
  23   2.0000      -0.301023        -8.1913 
  24   2.0000      -0.285943        -7.7809 
  25   2.0000      -0.271852        -7.3975 
  26   2.0000      -0.255721        -6.9585 
  27   2.0000      -0.238991        -6.5033 
  28   2.0000      -0.209705        -5.7064 
  29   2.0000      -0.181903        -4.9498 
  30   0.0000      -0.175118        -4.7652 
  31   0.0000      -0.173089        -4.7100 
  32   0.0000      -0.148963        -4.0535 
  33   0.0000      -0.136111        -3.7038 
  34   0.0000      -0.132215        -3.5977 
  35   0.0000      -0.111408        -3.0316 
  36   0.0000      -0.104689        -2.8487 
  37   0.0000      -0.068105        -1.8532 
  38   0.0000      -0.063584        -1.7302 
  39   0.0000      -0.055927        -1.5218 
  40   0.0000      -0.032579        -0.8865 
*Only the first 10 virtual orbitals were printed.

                    ********************************
                    * MULLIKEN POPULATION ANALYSIS *
                    ********************************

-----------------------
MULLIKEN ATOMIC CHARGES
-----------------------
   0 B :   -0.048860
   1 B :   -0.118053
   2 B :    0.277541
   3 B :   -0.189236
   4 B :    0.044296
   5 B :    0.038396
   6 B :   -0.090786
   7 B :    0.117314
   8 B :   -0.072391
   9 B :   -0.000675
  10 B :   -0.216481
  11 B :    0.258934
Sum of atomic charges:   -0.0000000

--------------------------------
MULLIKEN REDUCED ORBITAL CHARGES
--------------------------------
  0 B s       :     2.912490  s :     2.912490
      pz      :     0.657310  p :     2.081826
      px      :     0.592449
      py      :     0.832067
      dz2     :     0.017882  d :     0.054544
      dxz     :     0.011374
      dyz     :     0.010144
      dx2y2   :     0.007029
      dxy     :     0.008114

  1 B s       :     3.130456  s :     3.130456
      pz      :     0.781061  p :     1.938872
      px      :     0.680364
      py      :     0.477447
      dz2     :     0.012714  d :     0.048726
      dxz     :     0.013892
      dyz     :     0.007252
      dx2y2   :     0.006346
      dxy     :     0.008521

  2 B s       :     2.607519  s :     2.607519
      pz      :     0.704247  p :     2.053171
      px      :     0.778622
      py      :     0.570302
      dz2     :     0.016563  d :     0.061769
      dxz     :     0.015146
      dyz     :     0.009581
      dx2y2   :     0.010361
      dxy     :     0.010119

  3 B s       :     3.053154  s :     3.053154
      pz      :     0.756584  p :     2.090013
      px      :     0.610873
      py      :     0.722557
      dz2     :     0.012402  d :     0.046068
      dxz     :     0.006597
      dyz     :     0.010158
      dx2y2   :     0.008759
      dxy     :     0.008152

  4 B s       :     3.095678  s :     3.095678
      pz      :     0.579400  p :     1.826267
      px      :     0.673748
      py      :     0.573119
      dz2     :     0.010621  d :     0.033759
      dxz     :     0.006281
      dyz     :     0.005173
      dx2y2   :     0.005582
      dxy     :     0.006101

  5 B s       :     2.690791  s :     2.690791
      pz      :     0.741198  p :     2.212922
      px      :     0.754595
      py      :     0.717129
      dz2     :     0.019127  d :     0.057891
      dxz     :     0.009438
      dyz     :     0.009723
      dx2y2   :     0.009925
      dxy     :     0.009678

  6 B s       :     2.847108  s :     2.847108
      pz      :     0.725343  p :     2.194437
      px      :     0.687696
      py      :     0.781399
      dz2     :     0.012377  d :     0.049241
      dxz     :     0.006699
      dyz     :     0.011952
      dx2y2   :     0.007984
      dxy     :     0.010229

  7 B s       :     2.931028  s :     2.931028
      pz      :     0.733199  p :     1.910157
      px      :     0.705953
      py      :     0.471005
      dz2     :     0.013764  d :     0.041501
      dxz     :     0.007344
      dyz     :     0.009476
      dx2y2   :     0.005262
      dxy     :     0.005654

  8 B s       :     2.901011  s :     2.901011
      pz      :     0.629324  p :     2.116959
      px      :     0.738029
      py      :     0.749605
      dz2     :     0.018976  d :     0.054421
      dxz     :     0.010789
      dyz     :     0.010020
      dx2y2   :     0.007686
      dxy     :     0.006950

  9 B s       :     3.576312  s :     3.576312
      pz      :     0.612364  p :     1.392405
      px      :     0.385565
      py      :     0.394477
      dz2     :     0.009404  d :     0.031957
      dxz     :     0.006221
      dyz     :     0.006659
      dx2y2   :     0.006031
      dxy     :     0.003641

 10 B s       :     2.995733  s :     2.995733
      pz      :     0.697007  p :     2.164107
      px      :     0.775229
      py      :     0.691871
      dz2     :     0.017516  d :     0.056641
      dxz     :     0.013378
      dyz     :     0.009300
      dx2y2   :     0.008760
      dxy     :     0.007686

 11 B s       :     2.748080  s :     2.748080
      pz      :     0.751750  p :     1.933571
      px      :     0.485562
      py      :     0.696259
      dz2     :     0.017523  d :     0.059414
      dxz     :     0.009350
      dyz     :     0.011567
      dx2y2   :     0.009834
      dxy     :     0.011141



                     *******************************
                     * LOEWDIN POPULATION ANALYSIS *
                     *******************************

----------------------
LOEWDIN ATOMIC CHARGES
----------------------
   0 B :    0.004018
   1 B :    0.052529
   2 B :   -0.069316
   3 B :    0.011157
   4 B :   -0.002046
   5 B :   -0.057847
   6 B :    0.013040
   7 B :    0.045977
   8 B :   -0.041882
   9 B :    0.061484
  10 B :   -0.008273
  11 B :   -0.008842

-------------------------------
LOEWDIN REDUCED ORBITAL CHARGES
-------------------------------
  0 B s       :     2.683854  s :     2.683854
      pz      :     0.773069  p :     2.181349
      px      :     0.564302
      py      :     0.843978
      dz2     :     0.043971  d :     0.130779
      dxz     :     0.021142
      dyz     :     0.029137
      dx2y2   :     0.016773
      dxy     :     0.019756

  1 B s       :     2.753037  s :     2.753037
      pz      :     0.883422  p :     2.079320
      px      :     0.701407
      py      :     0.494490
      dz2     :     0.031978  d :     0.115113
      dxz     :     0.034034
      dyz     :     0.013024
      dx2y2   :     0.017464
      dxy     :     0.018614

  2 B s       :     2.661277  s :     2.661277
      pz      :     0.833432  p :     2.237863
      px      :     0.805448
      py      :     0.598983
      dz2     :     0.044822  d :     0.170175
      dxz     :     0.042255
      dyz     :     0.021419
      dx2y2   :     0.029608
      dxy     :     0.032072

  3 B s       :     2.694057  s :     2.694057
      pz      :     0.874403  p :     2.177290
      px      :     0.526116
      py      :     0.776770
      dz2     :     0.032556  d :     0.117496
      dxz     :     0.012251
      dyz     :     0.029607
      dx2y2   :     0.021639
      dxy     :     0.021443

  4 B s       :     2.796067  s :     2.796067
      pz      :     0.710262  p :     2.121513
      px      :     0.769066
      py      :     0.642185
      dz2     :     0.026809  d :     0.084467
      dxz     :     0.019481
      dyz     :     0.008479
      dx2y2   :     0.017002
      dxy     :     0.012697

  5 B s       :     2.641093  s :     2.641093
      pz      :     0.874074  p :     2.266395
      px      :     0.751768
      py      :     0.640552
      dz2     :     0.048947  d :     0.150360
      dxz     :     0.024836
      dyz     :     0.020345
      dx2y2   :     0.026896
      dxy     :     0.029336

  6 B s       :     2.682548  s :     2.682548
      pz      :     0.811492  p :     2.179158
      px      :     0.626027
      py      :     0.741639
      dz2     :     0.031623  d :     0.125254
      dxz     :     0.013512
      dyz     :     0.033021
      dx2y2   :     0.022003
      dxy     :     0.025095

  7 B s       :     2.727865  s :     2.727865
      pz      :     0.853771  p :     2.121733
      px      :     0.758556
      py      :     0.509406
      dz2     :     0.040890  d :     0.104425
      dxz     :     0.018801
      dyz     :     0.015575
      dx2y2   :     0.012951
      dxy     :     0.016208

  8 B s       :     2.689135  s :     2.689135
      pz      :     0.791992  p :     2.222256
      px      :     0.645655
      py      :     0.784608
      dz2     :     0.042657  d :     0.130492
      dxz     :     0.022201
      dyz     :     0.028934
      dx2y2   :     0.018373
      dxy     :     0.018327

  9 B s       :     3.105265  s :     3.105265
      pz      :     0.797941  p :     1.766287
      px      :     0.486283
      py      :     0.482063
      dz2     :     0.019055  d :     0.066964
      dxz     :     0.011772
      dyz     :     0.014392
      dx2y2   :     0.014941
      dxy     :     0.006804

 10 B s       :     2.668308  s :     2.668308
      pz      :     0.843712  p :     2.198805
      px      :     0.811129
      py      :     0.543963
      dz2     :     0.044572  d :     0.141160
      dxz     :     0.037550
      dyz     :     0.017023
      dx2y2   :     0.022348
      dxy     :     0.019668

 11 B s       :     2.672553  s :     2.672553
      pz      :     0.866554  p :     2.180469
      px      :     0.586849
      py      :     0.727066
      dz2     :     0.046388  d :     0.155821
      dxz     :     0.020016
      dyz     :     0.030168
      dx2y2   :     0.027833
      dxy     :     0.031415



                      *****************************
                      * MAYER POPULATION ANALYSIS *
                      *****************************

  NA   - Mulliken gross atomic population
  ZA   - Total nuclear charge
  QA   - Mulliken gross atomic charge
  VA   - Mayer's total valence
  BVA  - Mayer's bonded valence
  FA   - Mayer's free valence

  ATOM       NA         ZA         QA         VA         BVA        FA
  0 B      5.0489     5.0000    -0.0489     3.9432     3.9432    -0.0000
  1 B      5.1181     5.0000    -0.1181     3.7537     3.7537    -0.0000
  2 B      4.7225     5.0000     0.2775     3.6422     3.6422    -0.0000
  3 B      5.1892     5.0000    -0.1892     3.8804     3.8804    -0.0000
  4 B      4.9557     5.0000     0.0443     3.5039     3.5039    -0.0000
  5 B      4.9616     5.0000     0.0384     3.8233     3.8233    -0.0000
  6 B      5.0908     5.0000    -0.0908     4.1925     4.1925    -0.0000
  7 B      4.8827     5.0000     0.1173     3.5961     3.5961     0.0000
  8 B      5.0724     5.0000    -0.0724     3.7218     3.7218    -0.0000
  9 B      5.0007     5.0000    -0.0007     2.6024     2.6024    -0.0000
 10 B      5.2165     5.0000    -0.2165     3.8719     3.8719    -0.0000
 11 B      4.7411     5.0000     0.2589     3.4918     3.4918    -0.0000

  Mayer bond orders larger than 0.100000
B(  0-B ,  1-B ) :   0.6453 B(  0-B ,  4-B ) :   0.1378 B(  0-B ,  5-B ) :   0.9806 
B(  0-B ,  6-B ) :   1.0077 B(  0-B , 10-B ) :   0.1739 B(  0-B , 11-B ) :   0.7730 
B(  1-B ,  2-B ) :   1.2389 B(  1-B ,  3-B ) :   0.1685 B(  1-B ,  6-B ) :   0.4218 
B(  1-B ,  7-B ) :   0.7907 B(  1-B ,  8-B ) :   0.1466 B(  1-B ,  9-B ) :   0.1704 
B(  2-B ,  3-B ) :   0.8100 B(  2-B ,  7-B ) :   0.6236 B(  2-B ,  8-B ) :   0.6374 
B(  2-B ,  9-B ) :   0.1087 B(  3-B ,  4-B ) :   0.8641 B(  3-B ,  7-B ) :   0.1211 
B(  3-B ,  8-B ) :   1.1739 B(  3-B ,  9-B ) :   0.4274 B(  3-B , 10-B ) :   0.1296 
B(  4-B ,  5-B ) :   0.8415 B(  4-B ,  9-B ) :   0.5410 B(  4-B , 10-B ) :   0.7321 
B(  4-B , 11-B ) :   0.1525 B(  5-B ,  6-B ) :   0.2074 B(  5-B ,  9-B ) :   0.1029 
B(  5-B , 10-B ) :   0.8657 B(  5-B , 11-B ) :   0.5673 B(  6-B ,  7-B ) :   0.9371 
B(  6-B ,  8-B ) :   0.1416 B(  6-B , 10-B ) :   0.2611 B(  6-B , 11-B ) :   0.9637 
B(  7-B ,  8-B ) :   0.9234 B(  8-B ,  9-B ) :   0.4487 B(  9-B , 10-B ) :   0.6492 
B( 10-B , 11-B ) :   0.8865 

-------
TIMINGS
-------

Total SCF time: 0 days 0 hours 0 min 15 sec 

Total time                  ....      15.151 sec
Sum of individual times     ....      14.731 sec  ( 97.2%)

SCF preparation             ....       0.518 sec  (  3.4%)
Fock matrix formation       ....      12.274 sec  ( 81.0%)
  Startup                   ....       0.040 sec  (  0.3% of F)
  Split-RI-J                ....       3.963 sec  ( 32.3% of F)
  XC integration            ....       7.883 sec  ( 64.2% of F)
    XC Preparation          ....       0.000 sec  (  0.0% of XC)
    Basis function eval.    ....       1.771 sec  ( 22.5% of XC)
    Density eval.           ....       1.250 sec  ( 15.9% of XC)
    XC-Functional eval.     ....       0.207 sec  (  2.6% of XC)
    XC-Potential eval.      ....       1.532 sec  ( 19.4% of XC)
Diagonalization             ....       0.000 sec  (  0.0%)
Density matrix formation    ....       0.221 sec  (  1.5%)
Total Energy calculation    ....       0.134 sec  (  0.9%)
Population analysis         ....       0.030 sec  (  0.2%)
Orbital Transformation      ....       0.071 sec  (  0.5%)
Orbital Orthonormalization  ....       0.000 sec  (  0.0%)
DIIS solution               ....       0.922 sec  (  6.1%)
SOSCF solution              ....       0.561 sec  (  3.7%)
Finished LeanSCF after  15.2 sec

Maximum memory used throughout the entire LEANSCF-calculation: 10.2 MB


-------------------------------------------------------------------------------
                          DFT DISPERSION CORRECTION                            
                                                                               
                              DFTD3 V3.1  Rev 1                                
                          USING Becke-Johnson damping                          
-------------------------------------------------------------------------------
The BP86 functional is recognized
Active option DFTDOPT                   ...         4   

molecular C6(AA) [au] = 4695.392007 


            DFT-D V3
 parameters
 s6 scaling factor         :     1.0000 
 a1 scaling factor         :     0.3946 
 s8 scaling factor         :     3.2822 
 a2 scaling factor         :     4.8516 
 ad hoc parameters k1-k3   :    16.0000     1.3333    -4.0000 

 Edisp/kcal,au: -23.748438735136  -0.037845542073 
 E6   /kcal   :  -6.770635651 
 E8   /kcal   : -16.977803084 
 % E8         :  71.490186253 

-------------------------   ----------------
Dispersion correction           -0.037845542
-------------------------   ----------------


-------------------------   --------------------
FINAL SINGLE POINT ENERGY      -297.332784886390
-------------------------   --------------------



           ************************************************************
           *        Program running with 8 parallel MPI-processes     *
           *              working on a common directory               *
           ************************************************************
------------------------------------------------------------------------------
                         ORCA SCF GRADIENT CALCULATION
------------------------------------------------------------------------------

Nuc. rep. gradient        (SHARK) ... done (  0.0 sec)
HCore & Overlap gradient  (SHARK) ... done (  0.0 sec)
Split-RIJ-J gradient      (SHARK) ... done (  0.4 sec)
XC gradient                       ... done (  0.9 sec)
Dispersion correction             ... done (  0.1 sec)

-------------------
DISPERSION GRADIENT
-------------------

   1   B   :    0.000246800    0.000619750    0.000254880
   2   B   :    0.001610472   -0.001098110   -0.001586649
   3   B   :   -0.000382450    0.000534729    0.000082105
   4   B   :   -0.000384523   -0.000523698   -0.000405340
   5   B   :   -0.000394277   -0.000172080   -0.000523729
   6   B   :    0.000097835   -0.000524420    0.000108291
   7   B   :   -0.000485043    0.001433687    0.001351194
   8   B   :   -0.000163077    0.000565310    0.000215202
   9   B   :   -0.000302912    0.000222550   -0.000215202
  10   B   :   -0.000032863   -0.000111617    0.001114955
  11   B   :   -0.000363461   -0.000469084   -0.000287281
  12   B   :    0.000553500   -0.000477017   -0.000108424

Difference to translation invariance:
           :    0.0000000000   -0.0000000000    0.0000000000

Difference to rotation invariance:
           :   -0.0000000000   -0.0000000000   -0.0000000000

Norm of the Dispersion gradient    ...    0.0039422645
RMS gradient                       ...    0.0006570441
MAX gradient                       ...    0.0016104720

------------------
CARTESIAN GRADIENT
------------------

   1   B   :    0.009815347   -0.009802082   -0.097642678
   2   B   :   -0.099439227    0.034198227   -0.011599560
   3   B   :    0.032946852    0.004644150   -0.044990430
   4   B   :   -0.024237887    0.127981805   -0.109813947
   5   B   :   -0.022293619   -0.059066262    0.037712829
   6   B   :   -0.034375910   -0.040631128   -0.141404666
   7   B   :    0.055504756   -0.079470145    0.033781299
   8   B   :    0.019795993    0.049556207    0.010672890
   9   B   :   -0.030464966   -0.059968330    0.186925403
  10   B   :   -0.048572225   -0.016683295   -0.036542416
  11   B   :    0.087958234    0.004824167    0.114948724
  12   B   :    0.053362652    0.044416686    0.057952550

Difference to translation invariance:
           :    0.0000000000   -0.0000000000   -0.0000000000

Difference to rotation invariance:
           :    0.0000235163   -0.0002704831   -0.0002096436

Norm of the Cartesian gradient     ...    0.4091470378
RMS gradient                       ...    0.0681911730
MAX gradient                       ...    0.1869254031

-------
TIMINGS
-------

Total SCF gradient time     ....        1.357 sec

Densities                   ....       0.001 sec  (  0.1%)
One electron gradient       ....       0.049 sec  (  3.6%)
RI-J Coulomb gradient       ....       0.354 sec  ( 26.1%)
XC gradient                 ....       0.885 sec  ( 65.2%)

Maximum memory used throughout the entire SCFGRAD-calculation: 29.7 MB
------------------------------------------------------------------------------
                         ORCA GEOMETRY RELAXATION STEP
------------------------------------------------------------------------------

Reading the OPT-File                    .... done
Getting information on internals        .... done
Copying old internal coords+grads       .... done
Making the new internal coordinates     .... (2022 redundants) done
Validating the new internal coordinates .... (2022 redundants) done
Calculating the B-matrix                .... done
Calculating the G,G- and P matrices     .... done
Transforming gradient to internals      .... done
Projecting the internal gradient        .... done
Number of atoms                         ....  12
Number of internal coordinates          .... 198
Current Energy                          ....  -297.332784886 Eh
Current gradient norm                   ....     0.409147038 Eh/bohr
Maximum allowed component of the step   ....  0.300
Current trust radius                    ....  0.300
Evaluating the initial hessian          ....  (Almloef) done
Projecting the Hessian                  .... done
Forming the augmented Hessian           .... done
Diagonalizing the augmented Hessian     .... done
Last element of RFO vector              ....  0.838722283
Lowest eigenvalues of augmented Hessian:
 -0.126347351  0.027172548  0.032590562  0.037136703  0.039153350
Length of the computed step             ....  0.649272593
Warning: the length of the step is outside the trust region - taking restricted step instead
The input lambda is                     ....     0.026153
   iter:   5  x=   -0.080761  g=   21.117122 f(x)=     1.212745
   iter:  10  x=   -0.457949  g=    0.290944 f(x)=     0.003622
The output lambda is                    ....    -0.458343 (14 iterations)
The final length of the internal step   ....  0.300000000
Converting the step to Cartesian space:
 Initial RMS(Int)=    0.0213200716
Transforming coordinates:
 Iter   0:  RMS(Cart)=    0.0366384725 RMS(Int)=    0.0212820605
done
Storing new coordinates                 .... done

                                .--------------------.
          ----------------------|Geometry convergence|-------------------------
          Item                value                   Tolerance       Converged
          ---------------------------------------------------------------------
          RMS gradient        0.0154736964            0.0001000000      NO
          MAX gradient        0.0904422006            0.0003000000      NO
          RMS step            0.0213200716            0.0020000000      NO
          MAX step            0.1055028290            0.0040000000      NO
          -------------------------------------------------------------------------
          ........................................................
          Max(Bonds)      0.0558      Max(Angles)    2.06
          Max(Dihed)        1.52      Max(Improp)    0.00
          ---------------------------------------------------------------------

The optimization has not yet converged - more geometry cycles are needed


    ---------------------------------------------------------------------------
                         Redundant Internal Coordinates
                            (Angstroem and degrees)

        Definition                    Value    dE/dq     Step     New-Value
    ----------------------------------------------------------------------------
     1. B(B   2,B   1)                1.4804 -0.035085  0.0199    1.5003   
     2. B(B   3,B   2)                1.7775 -0.012398  0.0009    1.7784   
     3. B(B   4,B   3)                2.0367  0.057720 -0.0558    1.9809   
     4. B(B   5,B   0)                1.6714  0.007681 -0.0064    1.6650   
     5. B(B   5,B   4)                1.8365  0.018280 -0.0199    1.8165   
     6. B(B   6,B   1)                2.0889  0.052133 -0.0474    2.0416   
     7. B(B   6,B   0)                1.5156 -0.041178  0.0217    1.5373   
     8. B(B   7,B   6)                1.8761  0.043423 -0.0428    1.8333   
     9. B(B   7,B   2)                1.7178 -0.010852  0.0024    1.7202   
    10. B(B   7,B   1)                1.6160 -0.024350  0.0142    1.6301   
    11. B(B   8,B   7)                1.9276  0.031574 -0.0247    1.9028   
    12. B(B   8,B   3)                1.3868 -0.090442  0.0453    1.4321   
    13. B(B   8,B   2)                1.5309 -0.033521  0.0184    1.5494   
    14. B(B   9,B   4)                1.9867  0.011907 -0.0152    1.9715   
    15. B(B   9,B   3)                2.0667  0.032155 -0.0324    2.0343   
    16. B(B  10,B   9)                2.0497  0.048953 -0.0438    2.0059   
    17. B(B  10,B   5)                1.4262 -0.052180  0.0325    1.4587   
    18. B(B  10,B   4)                1.7114  0.007036 -0.0101    1.7013   
    19. B(B  11,B  10)                1.7789  0.007929 -0.0113    1.7675   
    20. B(B  11,B   6)                1.6233 -0.013730  0.0050    1.6283   
    21. B(B  11,B   5)                1.6246 -0.013811  0.0063    1.6309   
    22. B(B  11,B   0)                1.5448 -0.042843  0.0270    1.5719   
    23. A(B   5,B   0,B  11)           60.53  0.000358   -0.09     60.44   
    24. A(B   6,B   0,B  11)           64.06  0.012586   -0.92     63.14   
    25. A(B   5,B   0,B   6)          110.58  0.005040   -0.39    110.18   
    26. A(B   2,B   1,B   7)           67.23  0.008816   -0.72     66.51   
    27. A(B   6,B   1,B   7)           59.22  0.005291   -0.56     58.66   
    28. A(B   2,B   1,B   6)          112.22  0.009148   -0.84    111.38   
    29. A(B   1,B   2,B   3)          127.53  0.008270   -0.37    127.16   
    30. A(B   3,B   2,B   8)           48.87 -0.026787    1.55     50.42   
    31. A(B   3,B   2,B   7)          109.79  0.000074   -0.09    109.70   
    32. A(B   1,B   2,B   7)           60.15 -0.001621    0.21     60.37   
    33. A(B   7,B   2,B   8)           72.53  0.022897   -1.58     70.94   
    34. A(B   1,B   2,B   8)          126.85  0.016323   -1.09    125.76   
    35. A(B   8,B   3,B   9)           77.60  0.010293   -1.03     76.57   
    36. A(B   4,B   3,B   8)          122.74  0.001883   -0.17    122.57   
    37. A(B   2,B   3,B   9)          123.69  0.004576   -0.39    123.30   
[...]
      dxy     :     0.011136

  8 B s       :     2.728786  s :     2.728786
      pz      :     0.754512  p :     2.219643
      px      :     0.661469
      py      :     0.803661
      dz2     :     0.014568  d :     0.056225
      dxz     :     0.010525
      dyz     :     0.011733
      dx2y2   :     0.010308
      dxy     :     0.009092

  9 B s       :     2.721688  s :     2.721688
      pz      :     0.752852  p :     2.218891
      px      :     0.669928
      py      :     0.796111
      dz2     :     0.014589  d :     0.056171
      dxz     :     0.010652
      dyz     :     0.011658
      dx2y2   :     0.010425
      dxy     :     0.008848

 10 B s       :     2.726483  s :     2.726483
      pz      :     0.754073  p :     2.219419
      px      :     0.868986
      py      :     0.596361
      dz2     :     0.014579  d :     0.056219
      dxz     :     0.012197
      dyz     :     0.010038
      dx2y2   :     0.008326
      dxy     :     0.011079

 11 B s       :     2.720614  s :     2.720614
      pz      :     0.757252  p :     2.218920
      px      :     0.655771
      py      :     0.805897
      dz2     :     0.014545  d :     0.056173
      dxz     :     0.010499
      dyz     :     0.011574
      dx2y2   :     0.010371
      dxy     :     0.009184



                     *******************************
                     * LOEWDIN POPULATION ANALYSIS *
                     *******************************

----------------------
LOEWDIN ATOMIC CHARGES
----------------------
   0 B :   -0.001683
   1 B :    0.001105
   2 B :   -0.000797
   3 B :    0.000888
   4 B :   -0.001115
   5 B :    0.001747
   6 B :    0.001009
   7 B :   -0.001081
   8 B :    0.000845
   9 B :   -0.000409
  10 B :    0.000033
  11 B :   -0.000542

-------------------------------
LOEWDIN REDUCED ORBITAL CHARGES
-------------------------------
  0 B s       :     2.674684  s :     2.674684
      pz      :     0.788179  p :     2.184205
      px      :     0.528863
      py      :     0.867163
      dz2     :     0.040618  d :     0.142793
      dxz     :     0.016705
      dyz     :     0.034131
      dx2y2   :     0.021012
      dxy     :     0.030328

  1 B s       :     2.675271  s :     2.675271
      pz      :     0.788248  p :     2.180414
      px      :     0.788054
      py      :     0.604112
      dz2     :     0.040600  d :     0.143210
      dxz     :     0.030220
      dyz     :     0.020806
      dx2y2   :     0.027781
      dxy     :     0.023802

  2 B s       :     2.675023  s :     2.675023
      pz      :     0.790773  p :     2.182962
      px      :     0.774734
      py      :     0.617454
      dz2     :     0.040555  d :     0.142812
      dxz     :     0.029413
      dyz     :     0.021366
      dx2y2   :     0.028410
      dxy     :     0.023069

  3 B s       :     2.675417  s :     2.675417
      pz      :     0.794166  p :     2.180597
      px      :     0.518761
      py      :     0.867670
      dz2     :     0.040504  d :     0.143098
      dxz     :     0.016573
      dyz     :     0.034162
      dx2y2   :     0.021249
      dxy     :     0.030610

  4 B s       :     2.674886  s :     2.674886
      pz      :     0.794673  p :     2.183416
      px      :     0.785328
      py      :     0.603414
      dz2     :     0.040540  d :     0.142814
      dxz     :     0.029890
      dyz     :     0.020706
      dx2y2   :     0.027927
      dxy     :     0.023751

  5 B s       :     2.675673  s :     2.675673
      pz      :     0.791648  p :     2.179487
      px      :     0.776527
      py      :     0.611312
      dz2     :     0.040530  d :     0.143093
      dxz     :     0.029614
      dyz     :     0.021262
      dx2y2   :     0.028436
      dxy     :     0.023251

  6 B s       :     2.675399  s :     2.675399
      pz      :     0.794972  p :     2.180501
      px      :     0.610755
      py      :     0.774775
      dz2     :     0.040522  d :     0.143090
      dxz     :     0.021296
      dyz     :     0.029425
      dx2y2   :     0.028548
      dxy     :     0.023299

  7 B s       :     2.674891  s :     2.674891
      pz      :     0.793418  p :     2.183330
      px      :     0.867246
      py      :     0.522666
      dz2     :     0.040541  d :     0.142860
      dxz     :     0.033993
      dyz     :     0.016656
      dx2y2   :     0.021123
      dxy     :     0.030546

  8 B s       :     2.675421  s :     2.675421
      pz      :     0.789490  p :     2.180686
      px      :     0.605639
      py      :     0.785557
      dz2     :     0.040553  d :     0.143048
      dxz     :     0.020753
      dyz     :     0.030181
      dx2y2   :     0.027854
      dxy     :     0.023707

  9 B s       :     2.675016  s :     2.675016
      pz      :     0.787435  p :     2.182440
      px      :     0.618087
      py      :     0.776918
      dz2     :     0.040602  d :     0.142953
      dxz     :     0.021326
      dyz     :     0.029631
      dx2y2   :     0.028317
      dxy     :     0.023076

 10 B s       :     2.675096  s :     2.675096
      pz      :     0.789373  p :     2.181836
      px      :     0.867440
      py      :     0.525024
      dz2     :     0.040581  d :     0.143034
      dxz     :     0.034249
      dyz     :     0.016638
      dx2y2   :     0.021138
      dxy     :     0.030427

 11 B s       :     2.674931  s :     2.674931
      pz      :     0.792885  p :     2.182648
      px      :     0.601569
      py      :     0.788194
      dz2     :     0.040550  d :     0.142963
      dxz     :     0.020767
      dyz     :     0.029986
      dx2y2   :     0.027828
      dxy     :     0.023831



                      *****************************
                      * MAYER POPULATION ANALYSIS *
                      *****************************

  NA   - Mulliken gross atomic population
  ZA   - Total nuclear charge
  QA   - Mulliken gross atomic charge
  VA   - Mayer's total valence
  BVA  - Mayer's bonded valence
  FA   - Mayer's free valence

  ATOM       NA         ZA         QA         VA         BVA        FA
  0 B      4.9901     5.0000     0.0099     4.2151     4.2151     0.0000
  1 B      5.0079     5.0000    -0.0079     4.2387     4.2387     0.0000
  2 B      4.9925     5.0000     0.0075     4.2176     4.2176     0.0000
  3 B      5.0078     5.0000    -0.0078     4.2369     4.2369     0.0000
  4 B      4.9916     5.0000     0.0084     4.2166     4.2166     0.0000
  5 B      5.0105     5.0000    -0.0105     4.2391     4.2391     0.0000
  6 B      5.0060     5.0000    -0.0060     4.2338     4.2338    -0.0000
  7 B      4.9944     5.0000     0.0056     4.2209     4.2209    -0.0000
  8 B      5.0047     5.0000    -0.0047     4.2328     4.2328     0.0000
  9 B      4.9967     5.0000     0.0033     4.2242     4.2242    -0.0000
 10 B      5.0021     5.0000    -0.0021     4.2309     4.2309    -0.0000
 11 B      4.9957     5.0000     0.0043     4.2231     4.2231    -0.0000

  Mayer bond orders larger than 0.100000
B(  0-B ,  1-B ) :   1.0022 B(  0-B ,  2-B ) :   0.1722 B(  0-B ,  4-B ) :   0.1713 
B(  0-B ,  5-B ) :   1.0030 B(  0-B ,  6-B ) :   0.7550 B(  0-B ,  7-B ) :   0.1194 
B(  0-B , 10-B ) :   0.1190 B(  0-B , 11-B ) :   0.7551 B(  1-B ,  2-B ) :   1.0024 
B(  1-B ,  3-B ) :   0.1839 B(  1-B ,  5-B ) :   0.1850 B(  1-B ,  6-B ) :   0.7531 
B(  1-B ,  7-B ) :   0.7530 B(  1-B ,  8-B ) :   0.1195 B(  1-B , 11-B ) :   0.1198 
B(  2-B ,  3-B ) :   1.0028 B(  2-B ,  4-B ) :   0.1726 B(  2-B ,  6-B ) :   0.1196 
B(  2-B ,  7-B ) :   0.7560 B(  2-B ,  8-B ) :   0.7554 B(  2-B ,  9-B ) :   0.1193 
B(  3-B ,  4-B ) :   1.0033 B(  3-B ,  5-B ) :   0.1837 B(  3-B ,  7-B ) :   0.1194 
B(  3-B ,  8-B ) :   0.7522 B(  3-B ,  9-B ) :   0.7532 B(  3-B , 10-B ) :   0.1197 
B(  4-B ,  5-B ) :   1.0020 B(  4-B ,  8-B ) :   0.1194 B(  4-B ,  9-B ) :   0.7562 
B(  4-B , 10-B ) :   0.7544 B(  4-B , 11-B ) :   0.1191 B(  5-B ,  6-B ) :   0.1201 
B(  5-B ,  9-B ) :   0.1199 B(  5-B , 10-B ) :   0.7532 B(  5-B , 11-B ) :   0.7539 
B(  6-B ,  7-B ) :   1.0016 B(  6-B ,  8-B ) :   0.1815 B(  6-B , 10-B ) :   0.1806 
B(  6-B , 11-B ) :   1.0040 B(  7-B ,  8-B ) :   1.0039 B(  7-B ,  9-B ) :   0.1751 
B(  7-B , 11-B ) :   0.1746 B(  8-B ,  9-B ) :   1.0017 B(  8-B , 10-B ) :   0.1805 
B(  9-B , 10-B ) :   1.0036 B(  9-B , 11-B ) :   0.1765 B( 10-B , 11-B ) :   1.0014 


-------
TIMINGS
-------

Total SCF time: 0 days 0 hours 0 min 3 sec 

Total time                  ....       3.431 sec
Sum of individual times     ....       3.117 sec  ( 90.8%)

SCF preparation             ....       0.527 sec  ( 15.4%)
Fock matrix formation       ....       2.198 sec  ( 64.0%)
  Startup                   ....       0.009 sec  (  0.4% of F)
  Split-RI-J                ....       0.835 sec  ( 38.0% of F)
  XC integration            ....       1.497 sec  ( 68.1% of F)
    Basis function eval.    ....       0.351 sec  ( 23.4% of XC)
    Density eval.           ....       0.275 sec  ( 18.4% of XC)
    XC-Functional eval.     ....       0.042 sec  (  2.8% of XC)
    XC-Potential eval.      ....       0.356 sec  ( 23.8% of XC)
Diagonalization             ....       0.000 sec  (  0.0%)
Density matrix formation    ....       0.090 sec  (  2.6%)
Total Energy calculation    ....       0.018 sec  (  0.5%)
Population analysis         ....       0.072 sec  (  2.1%)
Orbital Transformation      ....       0.017 sec  (  0.5%)
Orbital Orthonormalization  ....       0.000 sec  (  0.0%)
DIIS solution               ....       0.023 sec  (  0.7%)
SOSCF solution              ....       0.172 sec  (  5.0%)
Finished LeanSCF after   3.5 sec

Maximum memory used throughout the entire LEANSCF-calculation: 10.9 MB


-------------------------------------------------------------------------------
                          DFT DISPERSION CORRECTION                            
                                                                               
                              DFTD3 V3.1  Rev 1                                
                          USING Becke-Johnson damping                          
-------------------------------------------------------------------------------
The BP86 functional is recognized
Active option DFTDOPT                   ...         4   

molecular C6(AA) [au] = 4067.084051 


            DFT-D V3
 parameters
 s6 scaling factor         :     1.0000 
 a1 scaling factor         :     0.3946 
 s8 scaling factor         :     3.2822 
 a2 scaling factor         :     4.8516 
 ad hoc parameters k1-k3   :    16.0000     1.3333    -4.0000 

 Edisp/kcal,au: -22.784894846699  -0.036310037311 
 E6   /kcal   :  -6.462125296 
 E8   /kcal   : -16.322769551 
 % E8         :  71.638555545 

-------------------------   ----------------
Dispersion correction           -0.036310037
-------------------------   ----------------


-------------------------   --------------------
FINAL SINGLE POINT ENERGY      -297.694553579858
-------------------------   --------------------

                                *** OPTIMIZATION RUN DONE ***



           ************************************************************
           *        Program running with 8 parallel MPI-processes     *
           *              working on a common directory               *
           ************************************************************

------------------------------------------------------------------------------
                              ORCA PROPERTY CALCULATIONS
------------------------------------------------------------------------------

GBWName                                 ... hex_antiprism_nn1.70_perturb2.gbw
Number of atoms                         ...     12
Number of basis functions               ...    168
Max core memory                         ...   2500 MB

Electric properties:
Dipole moment                           ... YES
Quadrupole moment                       ...  NO
Static polarizability (Dipole/Dipole)   ...  NO
Static polarizability (Dipole/Quad.)    ...  NO
Static polarizability (Quad./Quad.)     ...  NO
Static polarizability (Velocity)        ...  NO
Static hyperpolarizability              ...  NO

Atomic electric properties:
Dipole moment                           ...  NO
Quadrupole moment                       ...  NO
Static polarizability                   ...  NO

Choice of electric origin               ... Center of mass
Position of electric origin             ...    -0.102284     0.038098     0.087772

General magnetic properties:
Magnetizability                         ...  NO

EPR properties:
g-Tensor (aka g-matrix)                 ...  NO
Zero-Field splitting spin-orbit         ...  NO
Zero-field splitting spin-spin          ...  NO
Hyperfine couplings                     ...  NO (   0 nuclei)
Quadrupole couplings                    ...  NO (   0 nuclei)
Contact density                         ...  NO (   0 nuclei)

NMR properties:
Chemical shifts                         ...  NO (   0 nuclei)
Spin-rotation constants                 ...  NO (   0 nuclei)
Spin-spin couplings                     ...  NO (   0 nuclei,    0 pairs)

Choice of magnetic origin               ... GIAO
Position of magnetic origin             ...     0.000000     0.000000     0.000000

Properties with geometric perturbations:
SCF Hessian                             ...  NO
IR spectrum                             ...  NO
VCD spectrum                            ...  NO
X-ray spectroscopy properties:
SCF XES/XAS/RIXS spectra                ...  NO

SCF SOC stabilization energy            ...  NO
Diagonal Born-Oppenheimer correction    ...  NO

-------------
DIPOLE MOMENT
-------------

Method             : SCF
Type of density    : Electron Density
Multiplicity       :   1
Irrep              :   0
Energy             :  -297.6582435425468702 Eh
Basis              : AO
                                X                 Y                 Z
Electronic contribution:     -0.000299566       0.000082588      -0.000076840
Nuclear contribution   :      0.000000000       0.000000000       0.000000000
                        -----------------------------------------
Total Dipole Moment    :     -0.000299566       0.000082588      -0.000076840
                        -----------------------------------------
Magnitude (a.u.)       :      0.000320101
Magnitude (Debye)      :      0.000813633



--------------------
Rotational spectrum 
--------------------
 
Rotational constants in cm-1:             0.068543             0.068512             0.048302 
Rotational constants in MHz :          2054.881162          2053.937006          1448.068879 

Dipole components along the rotational axes: 
x,y,z [a.u.] :    -0.000136    -0.000280    -0.000073 
x,y,z [Debye]:    -0.000347    -0.000712    -0.000186 

 

Dipole moment calculation done in   0.0 sec 

Maximum memory used throughout the entire PROP-calculation: 8.5 MB

--------------------------------
SUGGESTED CITATIONS FOR THIS RUN
--------------------------------

Below you find a list of papers that are relevant to this ORCA run
We neither can nor want to force you to cite these papers, but we appreciate if you do
You receive ORCA, which is the product of decades of hard work by many enthusiastic individuals, for free
The only thing we kindly ask in return is that you cite our papers,
We deeply appreciate it, if you show your appreciation for ORCA by not just citing the generic ORCA reference.

Please note that relegating all ORCA citations to the supporting information does *not* help us.
SI sections are not indexed - citations you put there will not count into any citation statistics
But we need these citations in order to attract the funding resources that allow us to do what we are doing

Therefore, if you are a happy ORCA user, please consider citing a few of the papers listed below in the main body of your paper

In addition to the list printed below, the program has created the file hex_antiprism_nn1.70_perturb2.bibtex that contains the list in bibtex format
You can import this file easily into all common literature databanks and citation aid programs

It goes without saying that in many instances, there are alternative algorithms to achieve similar
results as the ones you have gotten from ORCA. It is, of course, also the case that in some instances
ORCA just re-implements algorithms worked out by others. We are fully aware of that and we are also
fully appreciative of our colleagues work. Hence this citation list should not be read as indicating
that the listed papers, which are focused on our own work, are the only ones worth citing. It simply
meant to make it easier for users to cite ORCA specific papers. It is not a substitute for doing your
own literature research and citing the relevant literature in a scientifically appropriate manner.

List of essential papers. We consider these as the minimum necessary citations

  1. Neese, F.
     Software update: the ORCA program system, version 6.0
     WIRES Comput. Molec. Sci. 2025 15(1), e70019
     doi.org/10.1002/wcms.70019

List of papers to cite with high priority. The work reported in these papers was absolutely
necessary for this run to complete.
Our perspective: the developers of density functionals and basis sets usually get cited in chemistry papers
Good! But without the algorithms to do something with them, the functionals or basis sets would not do anything.
Hence, in our opinion, the algorithm design and method developments papers are equally worthy of getting cited

  1. Neese, F.
     An improvement of the resolution of the identity approximation for the formation of the Coulomb matrix
     J. Comp. Chem. 2003 24(14), 1740-1747
     doi.org/10.1002/jcc.10318
  2. Grimme, S.; Antony, J.; Ehrlich, S.; Krieg, H.
     A consistent and accurate ab initio parametrization of density functional dispersion correction (DFT-D) for the 94 elements H-Pu
     J. Chem. Phys. 2010 132 , 154104
     doi.org/10.1063/1.3382344
  3. Grimme, S.; Ehrlich, S.; Goerigk, L.
     Effect of the damping function in dispersion corrected density functional theory
     J. Comput. Chem. 2011 32(7), 1456-1465
     doi.org/10.1002/jcc.21759
  4. Neese, F.
     The SHARK Integral Generation and Digestion System
     J. Comp. Chem. 2022 44(3), 381
     doi.org/10.1002/jcc.26942

List of suggested additional citations. These are papers that are important in the 'surrounding' of 
of this run, or papers that preceded the highly important papers. If you like your results we are grateful for a citation.

  1. Neese, F.
     The ORCA program system
     WIRES Comput. Molec. Sci. 2012 2(1), 73-78
     doi.org/10.1002/wcms.81
  2. Neese, F.
     Software update: the ORCA program system, version 4.0
     WIRES Comput. Molec. Sci. 2018 8(1), 1-6
     doi.org/10.1002/wcms.1327
  3. Neese, F.; Wennmohs, F.; Becker, U.; Riplinger, C.
     The ORCA quantum chemistry program package
     J. Chem. Phys. 2020 152(22), 224108
     doi.org/10.1063/5.0004608
  4. Neese, F.
     Software update: The ORCA program system—Version 5.0
     WIRES Comput. Molec. Sci. 2022 12(1), e1606
     doi.org/10.1002/wcms.1606

List of optional additional citations

  1. Neese, F.
     Approximate second-order SCF convergence for spin unrestricted wavefunctions
     Chem. Phys. Lett. 2000 325(1-3), 93-98
     doi.org/10.1016/s0009-2614(00)00662-x

Timings for individual modules:

Sum of individual times          ...      174.555 sec (=   2.909 min)
Startup calculation              ...       24.522 sec (=   0.409 min)  14.0 %
SCF iterations                   ...      116.735 sec (=   1.946 min)  66.9 %
Property calculations            ...        0.636 sec (=   0.011 min)   0.4 %
SCF Gradient evaluation          ...       32.452 sec (=   0.541 min)  18.6 %
Geometry relaxation              ...        0.209 sec (=   0.003 min)   0.1 %
                             ****ORCA TERMINATED NORMALLY****
TOTAL RUN TIME: 0 days 0 hours 3 minutes 5 seconds 786 msec
