
                                 *****************
                                 * O   R   C   A *
                                 *****************

                                            #,                                       
                                            ###                                      
                                            ####                                     
                                            #####                                    
                                            ######                                   
                                           ########,                                 
                                     ,,################,,,,,                         
                               ,,#################################,,                 
                          ,,##########################################,,             
                       ,#########################################, ''#####,          
                    ,#############################################,,   '####,        
                  ,##################################################,,,,####,       
                ,###########''''           ''''###############################       
              ,#####''   ,,,,##########,,,,          '''####'''          '####       
            ,##' ,,,,###########################,,,                        '##       
           ' ,,###''''                  '''############,,,                           
         ,,##''                                '''############,,,,        ,,,,,,###''
      ,#''                                            '''#######################'''  
     '                                                          ''''####''''         
             ,#######,   #######,   ,#######,      ##                                
            ,#'     '#,  ##    ##  ,#'     '#,    #''#        ,####,    ,#,          
            ##       ##  ##   ,#'  ##            #'  '#       #'       ,# #          
            ##       ##  #######   ##           ,######,      #####,      #          
            '#,     ,#'  ##    ##  '#,     ,#' ,#      #,     #,   #      #          
             '#######'   ##     ##  '#######'  #'      '#     '####' #    #          



                #########################################################
                #                        -***-                          #
                #          Department of theory and spectroscopy        #
                #                                                       #
                #                      Frank Neese                      #
                #                                                       #
                #     Directorship, Architecture, Infrastructure        #
                #                    SHARK, DRIVERS                     #
                #        Core code/Algorithms in most modules           #
                #                                                       #
                #        Max Planck Institute fuer Kohlenforschung      #
                #                Kaiser Wilhelm Platz 1                 #
                #                 D-45470 Muelheim/Ruhr                 #
                #                      Germany                          #
                #                                                       #
                #                  All rights reserved                  #
                #                        -***-                          #
                #########################################################


                         Program Version 6.1.1  -  RELEASE   -
                                (GIT: $487d211c$)
                          ($2025-11-21 10:33:24 +0100$)
                                                                         
                                  - NO-DMRG VERSION -                    
                                                                         


 With contributions from (in alphabetic order):
[Max-Planck-Institut fuer Kohlenforschung]                               
  Daniel Aravena         : Magnetic Suceptibility                        
  Michael Atanasov       : Ab Initio Ligand Field Theory (pilot matlab implementation)
  Alexander A. Auer      : GIAO ZORA, VPT2 properties, NMR spectrum      
  Ute Becker             : All parallelization in ORCA, NUMFREQ, NUMCALC 
  Giovanni Bistoni       : ED, misc. LED, open-shell LED, HFLD           
  Dmytro Bykov           : pre 5.0 version of the SCF Hessian            
  Marcos Casanova-Páez   : Triplet and SCS-CIS(D). UHF-(DLPNO)-IP/EA/STEOM-CCSD. UHF-CVS-IP/STEOM-CCSD   
  Vijay G. Chilkuri      : MRCI spin determinant printing, contributions to CSF-ICE 
  Pauline Colinet        : FMM embedding                                 
  Dipayan Datta          : RHF DLPNO-CCSD density                        
  Achintya Kumar Dutta   : EOM-CC, STEOM-CC                              
  Nicolas Foglia         : Exact transition moments, OPA infrastructure, MCD improvements    
  Dmitry Ganyushin       : Spin-Orbit,Spin-Spin,Magnetic field MRCI      
  Miquel Garcia-Rates    : C-PCM and meta-GGA Hessian, CCSD/C-PCM, Gaussian charge scheme 
  Tiago L. C. Gouveia    : GS-ROHF, GS-ROCIS                             
  Yang Guo               : DLPNO-NEVPT2, F12-NEVPT2, CIM, IAO-localization        
  Andreas Hansen         : Spin unrestricted coupled pair/coupled cluster methods 
  Ingolf Harden          : AUTO-CI MPn and infrastructure                
  Benjamin Helmich-Paris : MC-RPA, TRAH-(SCF,CASSCF), AVAS, COSX integrals, SCF dyn. polar., MC-PDFT, srDFT 
  Lee Huntington         : MR-EOM, pCC                                   
  Robert Izsak           : Overlap fitted RIJCOSX, COSX-SCS-MP3, EOM     
  Riya Kayal             : Wick's Theorem for AUTO-CI, AUTO-CI UHF-CCSDT 
  Emily Kempfer          : AUTO-CI RHF CISDT and CCSDT, approximate NEVPT4
  Christian Kollmar      : KDIIS, OOCD, Brueckner-CCSD(T), CCSD density, CASPT2, CASPT2-K, improved NEVPT2 
  Axel Koslowski         : Symmetry handling                             
  Simone Kossmann        : meta-GGA functionals, TD-DFT gradient, OOMP2, (MP2 Hessian; deprecated post 5.0) 
  Lucas Lang             : DCDCAS, Hyperfine gauge corrections, ICE-SOC+SSC
  Marvin Lechner         : AUTO-CI (C++ implementation), FIC-MRCC        
  Spencer Leger          : CASSCF response                               
  Dagmar Lenk            : GEPOL surface, SMD, ORCA-2-JSON               
  Dimitrios Liakos       : Extrapolation schemes; Compound Job, Property file
  Dimitrios Manganas     : Further ROCIS development; embedding schemes. LFT, Crystal Embedding 
  Dimitrios Pantazis     : SARC Basis sets                               
  Anastasios Papadopoulos: AUTO-CI, single reference methods and gradients 
  Taras Petrenko         : pre 6.0 DFT Hessian and TD-DFT gradient,  ECA, NRVS 
  Petra Pikulova         : Analytic Raman intensities                    
  Peter Pinski           : DLPNO-MP2, DLPNO-MP2 Gradient                 
  Shashank Vittal Rao    : ES-AILFT, MagRelax                            
  Christoph Reimann      : Effective Core Potentials                     
  Marius Retegan         : Local ZFS, SOC                                
  Christoph Riplinger    : Optimizer, TS searches, QM/MM, DLPNO-CCSD(T), (RO)-DLPNO pert. Triples 
  Michael Roemelt        : Original ROCIS implementation, recursive CI coupling coefficients
  Masaaki Saitow         : Open-shell DLPNO-CCSD energy and density      
  Barbara Sandhoefer     : DKH picture change effects                    
  Yorick L. A. Schmerwitz: GMF and freeze-and-release deltaSCF, NEB S-IDPP initial path                    
  Kantharuban Sivalingam : CASSCF convergence/infrastructure, NEVPT2, NEVPT3, NEVPT4(SD), FIC-MRCI and CEPA variants
  Bernardo de Souza      : ESD, SOC TD-DFT                               
  Georgi L. Stoychev     : AutoAux, RI-MP2 NMR, DLPNO-MP2 response, X2C  
  Van Anh Tran           : RI-MP2 g-tensors                              
  Willem Van den Heuvel  : Paramagnetic NMR                              
  Zikuan Wang            : NOTCH, Electric field optimization            
  Frank Wennmohs         : Technical directorship and infrastructure     
  Hang Xu                : AUTO-CI-Response properties                   
                                                                         
[FACCTs GmbH]                                                            
  Markus Bursch, Nicolas Foglia, Miquel Garcia-Rates, Ingolf Harden, Hagen Neugebauer, Anastasios Papadopoulos, 
  Christoph Riplinger, Bernardo de Souza, Georgi L. Stoychev                                                    
                                                                 
  APM, various basis sets, CI-OPT, improved COSX, DLPNO-Multilevel,           
  DOCKER, DRACO, updates on ESD, Fragmentator, GOAT, IRC, LR-CPCM, L-BFGS, MBIS, meta-GGA TD-DFT gradient, ML-optimized integration grids, 
  MM, NACMEs, nearIR, NEB, NEB-TS, NL-DFT gradient (VV10), 2- and 3-layer-ONIOM, interface openCOSMO-RS, QMMM,   
  Crystal-QMMM, RESP, rigid body optimization, SF, symmetry and pop. for TD-DFT, various functionals, SOLVATOR                                   
                                                                         
[Other institutions]                                                     
  V. Asgeirsson          : NEB                                           
  Christoph Bannwarth    : sTDA-DFT, sTD-DFT, PBEh-3c, B97-3c, D3        
  Giovanni Bistoni       : ETS/NOCV, ADLD/ADEX, COVALED                  
  Martin Brehm           : Molecular dynamics                            
  Ronald Cardenas        : ETS/NOCV                                      
  Martina Colucci        : COVALED                                       
  Sebastian Ehlert       : rSCAN, r2SCAN, r2SCAN-3c, D4, dhf basis sets  
  Marvin Friede          : D4 for Fr, Ra, Ac-Lr                          
  Lars Goerigk           : TD-DFT with DH, B97 family of functionals     
  Stefan Grimme          : VdW corrections, initial TS optimization, DFT functionals, gCP, sTDA/sTD-DF 
  Waldemar Hujo          : DFT-NL                                        
  H. Jonsson             : NEB                                           
  Holger Kruse           : gCP                                           
  Marcel Mueller         : wB97X-3c, vDZP basis set                      
  Hagen Neugebauer       : wr2SCAN, Native XTB                           
  Gianluca Regni         : ADLD/ADEX                                     
  Tobias Risthaus        : pre 6.0 range-separated hybrid DFT and stability analysis
  Lukas Wittmann         : regularized MP2, r2SCAN double-hybrids, wr2SCAN        
                                                                         
We gratefully acknowledge several colleagues who have allowed us to      
interface, adapt or use parts of their codes:                            
  Ed Valeev, F. Pavosevic, A. Kumar             : LibInt (2-el integral package), F12 methods 
  Garnet Chan, S. Sharma, J. Yang, R. Olivares  : DMRG                   
  Ulf Ekstrom                                   : XCFun DFT Library      
  Mihaly Kallay                                 : mrcc  (arbitrary order and MRCC methods)
  Frank Weinhold                                : gennbo (NPA and NBO analysis)           
  Simon Mueller                                 : openCOSMO-RS                            
  Christopher J. Cramer and Donald G. Truhlar   : smd solvation model                     
  S Lehtola, MJT Oliveira, MAL Marques          : LibXC Library                           
  Liviu Ungur et al                             : ANISO software                          


 Your calculation uses the libint2 library for the computation of 2-el integrals
 For citations please refer to: http://libint.valeyev.net

 Your ORCA version has been built with support for libXC version: 7.0.0
 For citations please refer to: https://libxc.gitlab.io

 This ORCA versions uses:
   CBLAS   interface :  Fast vector & matrix operations
   LAPACKE interface :  Fast linear algebra routines
   SCALAPACK package :  Parallel linear algebra routines
   Shared memory     :  Shared parallel matrices
   BLAS/LAPACK       :  OpenBLAS 0.3.29  USE64BITINT DYNAMIC_ARCH NO_AFFINITY Zen SINGLE_THREADED
        Core in use  :  Zen
   Copyright (c) 2011-2014, The OpenBLAS Project


  ***********************************
  * Starting time: Thu Apr 23 14:51:52 2026
  * Host name:     vmi3233575
  * Process ID:    1282259
  * Working dir.:  /root/b12_scan/jobs/hex_antiprism_nn1.70_perturb1
  ***********************************

NOTE: MaxCore=2500 MB was set to SCF,MP2,MDCI,CIPSI,MRCI,RASCI and CIS
      => If you want to overwrite this, your respective input block should be placed after the MaxCore statement
Your calculation utilizes the atom-pairwise dispersion correction
with the Becke-Johnson damping scheme (D3BJ)


================================================================================

----- Orbital basis set information -----
Your calculation utilizes the basis: def2-SVP
   F. Weigend and R. Ahlrichs, Phys. Chem. Chem. Phys. 7, 3297 (2005).

----- AuxJ basis set information -----
Your calculation utilizes the auxiliary basis: def2/J
   H-Rn: F. Weigend, Phys. Chem. Chem. Phys. 8, 1057 (2006).
   Fr-Lr: K. Eichkorn, F. Weigend, O. Treutler, R. Ahlrichs; Theor. Chem. Acc. 97, 119 (1997).

================================================================================
                                        WARNINGS
                       Please study these warnings very carefully!
================================================================================


WARNING: Geometry Optimization
  ===> : Switching off AutoStart
         For restart on a previous wavefunction, please use MOREAD

================================================================================
                                       INPUT FILE
================================================================================
NAME = hex_antiprism_nn1.70_perturb1.inp
|  1> ! BP86 def2-SVP def2/J RI Opt TightSCF D3BJ
|  2> ! SlowConv
|  3> 
|  4> %pal nprocs 8 end
|  5> %maxcore 2500
|  6> 
|  7> %geom
|  8>   MaxIter 300
|  9> end
| 10> 
| 11> * xyz 0 1
| 12> B      1.83593334      0.12324272      0.76320384
| 13> B      0.69657427      1.68087558      0.78059447
| 14> B     -0.97259084      1.63223992      0.76832414
| 15> B     -1.73997583      0.00426334      0.79564523
| 16> B     -1.00251597     -1.56950870      0.64132039
| 17> B      0.98187479     -1.53911389      0.66976977
| 18> B      1.42778594      0.85346902     -0.71241696
| 19> B     -0.04134044      1.97820528     -0.56262964
| 20> B     -1.95174658      0.60869587     -0.73985410
| 21> B     -1.60840077     -0.86000140     -0.68103999
| 22> B      0.31767581     -1.95089882     -0.77027903
| 23> B      1.85148795     -0.79504240     -0.61417878
| 24> *
| 25> 
| 26>                          ****END OF INPUT****
================================================================================

                       *****************************
                       * Geometry Optimization Run *
                       *****************************

Geometry optimization settings:
Update method            Update   .... BFGS
Choice of coordinates    CoordSys .... (2022) Redundant Internals
Initial Hessian          InHess   .... Almloef's Model
Max. no of cycles        MaxIter  .... 300

Convergence Tolerances:
Energy Change            TolE     ....  5.0000e-06 Eh
Max. Gradient            TolMAXG  ....  3.0000e-04 Eh/bohr
RMS Gradient             TolRMSG  ....  1.0000e-04 Eh/bohr
Max. Displacement        TolMAXD  ....  4.0000e-03 bohr
RMS Displacement         TolRMSD  ....  2.0000e-03 bohr
Strict Convergence                .... False

------------------------------------------------------------------------------
                        ORCA OPTIMIZATION COORDINATE SETUP
------------------------------------------------------------------------------

The optimization will be done in redundant internal coordinates (2022)
Making redundant internal coordinates   ...  (2022 redundants) done
Evaluating the initial hessian          ...  (Almloef) done
Evaluating the coordinates              ...  done
Calculating the B-matrix                .... done
Calculating the G-matrix                .... done
The number of degrees of freedom        ....  197

    -----------------------------------------------------------------
                    Redundant Internal Coordinates


    -----------------------------------------------------------------
         Definition                    Initial Value    Approx d2E/dq
    -----------------------------------------------------------------
      1. B(B   1,B   0)                  1.9299         0.115328   
      2. B(B   2,B   1)                  1.6699         0.299765   
      3. B(B   3,B   2)                  1.8000         0.185898   
      4. B(B   4,B   3)                  1.7448         0.227651   
      5. B(B   5,B   4)                  1.9848         0.094268   
      6. B(B   5,B   0)                  1.8712         0.143077   
      7. B(B   6,B   0)                  1.6963         0.272124   
      8. B(B   6,B   1)                  1.8570         0.150780   
      9. B(B   7,B   6)                  1.8563         0.151162   
     10. B(B   7,B   2)                  1.6608         0.309942   
     11. B(B   7,B   1)                  1.5611         0.447015   
     12. B(B   8,B   3)                  1.6637         0.306676   
     13. B(B   8,B   2)                  2.0691         0.069181   
     14. B(B   9,B   4)                  1.6184         0.362258   
     15. B(B   9,B   3)                  1.7161         0.253025   
     16. B(B   9,B   8)                  1.5094         0.540518   
     17. B(B  10,B   5)                  1.6384         0.336521   
     18. B(B  10,B   4)                  1.9700         0.099538   
     19. B(B  11,B  10)                  1.9269         0.116622   
     20. B(B  11,B   6)                  1.7049         0.263593   
     21. B(B  11,B   5)                  1.7200         0.249392   
     22. B(B  11,B   0)                  1.6555         0.316074   
     23. A(B   1,B   0,B   6)           61.2062         0.293223   
     24. A(B   1,B   0,B  11)          117.4340         0.300262   
     25. A(B   5,B   0,B   6)          103.2488         0.303436   
     26. A(B   1,B   0,B   5)          116.6151         0.265568   
     27. A(B   5,B   0,B  11)           57.9931         0.310827   
     28. A(B   6,B   0,B  11)           61.1358         0.345570   
     29. A(B   0,B   1,B   6)           53.1788         0.267676   
     30. A(B   2,B   1,B   7)           61.7554         0.372653   
     31. A(B   6,B   1,B   7)           65.1157         0.331795   
     32. A(B   0,B   1,B   2)          124.5080         0.297744   
     33. A(B   0,B   1,B   7)          115.1513         0.317503   
     34. A(B   2,B   1,B   6)          112.0059         0.310800   
     35. A(B   3,B   2,B   7)          116.0793         0.323328   
     36. A(B   7,B   2,B   8)           77.5409         0.276352   
     37. A(B   3,B   2,B   8)           50.3489         0.255882   
     38. A(B   1,B   2,B   8)          119.5240         0.274942   
     39. A(B   1,B   2,B   3)          116.8956         0.321564   
     40. A(B   1,B   2,B   7)           55.9000         0.350090   
     41. A(B   8,B   3,B   9)           53.0253         0.339661   
     42. A(B   4,B   3,B   9)           55.7521         0.323313   
     43. A(B   2,B   3,B   9)          114.1896         0.312810   
     44. A(B   2,B   3,B   4)          129.3637         0.307520   
     45. A(B   4,B   3,B   8)          107.4489         0.333737   
     46. A(B   2,B   3,B   8)           73.2421         0.322767   
     47. A(B   3,B   4,B   9)           61.2237         0.343139   
     48. A(B   9,B   4,B  10)           75.5391         0.299743   
     49. A(B   3,B   4,B   5)          114.0468         0.276388   
     50. A(B   5,B   4,B  10)           48.9469         0.244390   
     51. A(B   3,B   4,B  10)          121.4149         0.278710   
     52. A(B   5,B   4,B   9)          112.2900         0.297164   
     53. A(B   0,B   5,B   4)          118.0752         0.257690   
     54. A(B  10,B   5,B  11)           69.9761         0.344149   
     55. A(B   4,B   5,B  11)          120.0929         0.280297   
     56. A(B   0,B   5,B  11)           54.7046         0.299243   
     57. A(B   4,B   5,B  10)           65.0553         0.293721   
     58. A(B   0,B   5,B  10)          116.8836         0.313996   
     59. A(B   7,B   6,B  11)          141.0681         0.304560   
     60. A(B   1,B   6,B  11)          118.8393         0.304437   
     61. A(B   0,B   6,B  11)           58.2528         0.335240   
     62. A(B   0,B   6,B   1)           65.6151         0.305996   
     63. A(B   1,B   6,B   7)           49.7227         0.278960   
     64. A(B   0,B   6,B   7)          112.4003         0.306120   
     65. A(B   2,B   7,B   6)          112.4710         0.312610   
     66. A(B   1,B   7,B   6)           65.1615         0.331934   
     67. A(B   1,B   7,B   2)           62.3447         0.374805   
     68. A(B   2,B   8,B   3)           56.4090         0.275904   
     69. A(B   3,B   8,B   9)           65.2657         0.386645   
     70. A(B   2,B   8,B   9)          110.1996         0.301484   
     71. A(B   4,B   9,B   8)          122.9269         0.398080   
     72. A(B   3,B   9,B   8)           61.7090         0.373967   
     73. A(B   3,B   9,B   4)           63.0242         0.349291   
     74. A(B   5,B  10,B  11)           56.9993         0.303822   
     75. A(B   4,B  10,B  11)          111.0544         0.252058   
     76. A(B   4,B  10,B   5)           65.9979         0.296257   
     77. A(B   6,B  11,B  10)          112.1800         0.292268   
     78. A(B   5,B  11,B  10)           53.0246         0.289736   
     79. A(B   0,B  11,B  10)          113.1197         0.300796   
     80. A(B   5,B  11,B   6)          109.6122         0.330426   
     81. A(B   0,B  11,B   6)           60.6115         0.343727   
     82. A(B   0,B  11,B   5)           67.3023         0.340554   
     83. D(B   2,B   1,B   0,B   5)      2.0767         0.010000   
     84. D(B   2,B   1,B   0,B  11)     68.0076         0.010000   
     85. D(B   2,B   1,B   0,B   6)     93.0566         0.010000   
     86. D(B   6,B   1,B   0,B   5)    -90.9799         0.010000   
     87. D(B   7,B   1,B   0,B   5)    -69.7650         0.010000   
     88. D(B   6,B   1,B   0,B  11)    -25.0491         0.010000   
     89. D(B   7,B   2,B   1,B   6)    -42.9203         0.010000   
     90. D(B   3,B   2,B   1,B   0)      2.1048         0.010000   
     91. D(B   8,B   2,B   1,B   0)    -55.5499         0.010000   
     92. D(B   7,B   2,B   1,B   0)   -102.4831         0.010000   
     93. D(B   3,B   2,B   1,B   6)     61.6676         0.010000   
     94. D(B   3,B   2,B   1,B   7)    104.5880         0.010000   
     95. D(B   4,B   3,B   2,B   1)     -8.2019         0.010000   
     96. D(B   4,B   3,B   2,B   7)     54.9496         0.010000   
     97. D(B   4,B   3,B   2,B   8)     99.0922         0.010000   
     98. D(B   8,B   3,B   2,B   7)    -44.1426         0.010000   
     99. D(B   8,B   3,B   2,B   1)   -107.2941         0.010000   
    100. D(B   9,B   3,B   2,B   1)    -72.7674         0.010000   
    101. D(B  10,B   4,B   3,B   2)    -46.7525         0.010000   
    102. D(B   9,B   4,B   3,B   8)    -12.3883         0.010000   
    103. D(B   5,B   4,B   3,B   2)      8.4850         0.010000   
    104. D(B   9,B   4,B   3,B   2)    -94.7411         0.010000   
    105. D(B   5,B   4,B   3,B   9)    103.2262         0.010000   
    106. D(B   5,B   4,B   3,B   8)     90.8379         0.010000   
    107. D(B   4,B   5,B   0,B  11)   -108.5816         0.010000   
    108. D(B   4,B   5,B   0,B   1)     -1.4531         0.010000   
    109. D(B   4,B   5,B   0,B   6)    -65.6362         0.010000   
    110. D(B  10,B   5,B   0,B   6)      8.9677         0.010000   
    111. D(B  10,B   5,B   0,B   1)     73.1508         0.010000   
    112. D(B  10,B   5,B   0,B  11)    -33.9777         0.010000   
    113. D(B   0,B   5,B   4,B   3)     -3.1211         0.010000   
    114. D(B  11,B   5,B   4,B   3)    -66.5216         0.010000   
    115. D(B  10,B   5,B   4,B   9)    -44.3648         0.010000   
    116. D(B  10,B   5,B   4,B   3)   -111.6093         0.010000   
    117. D(B   0,B   5,B   4,B  10)    108.4882         0.010000   
    118. D(B   0,B   5,B   4,B   9)     64.1234         0.010000   
    119. D(B  11,B   6,B   1,B   2)    -92.8179         0.010000   
    120. D(B   7,B   6,B   1,B   2)     41.3987         0.010000   
    121. D(B   7,B   6,B   1,B   0)    158.8335         0.010000   
    122. D(B   0,B   6,B   1,B   7)   -158.8335         0.010000   
    123. D(B   0,B   6,B   1,B   2)   -117.4348         0.010000   
    124. D(B  11,B   6,B   0,B   1)   -154.5904         0.010000   
    125. D(B   7,B   6,B   0,B   5)     95.9792         0.010000   
    126. D(B   7,B   6,B   0,B   1)    -17.3351         0.010000   
    127. D(B   1,B   6,B   0,B  11)    154.5904         0.010000   
    128. D(B  11,B   6,B   1,B   0)     24.6168         0.010000   
    129. D(B   1,B   6,B   0,B   5)    113.3142         0.010000   
    130. D(B   7,B   6,B   0,B  11)    137.2553         0.010000   
    131. D(B   2,B   7,B   6,B  11)     45.6986         0.010000   
    132. D(B   2,B   7,B   6,B   1)    -41.8455         0.010000   
    133. D(B   2,B   7,B   6,B   0)    -21.0086         0.010000   
    134. D(B   1,B   7,B   6,B  11)     87.5441         0.010000   
    135. D(B   1,B   7,B   6,B   0)     20.8369         0.010000   
    136. D(B   6,B   7,B   2,B   3)    -62.9542         0.010000   
    137. D(B   6,B   7,B   2,B   1)     43.1176         0.010000   
    138. D(B   6,B   7,B   1,B   2)   -135.8944         0.010259   
    139. D(B   6,B   7,B   1,B   0)    -18.6220         0.010259   
    140. D(B   2,B   7,B   1,B   6)    135.8944         0.010259   
    141. D(B   1,B   7,B   2,B   8)   -139.3810         0.010000   
    142. D(B   2,B   7,B   1,B   0)    117.2724         0.010259   
    143. D(B   1,B   7,B   2,B   3)   -106.0718         0.010000   
    144. D(B   6,B   7,B   2,B   8)    -96.2634         0.010000   
    145. D(B   3,B   8,B   2,B   1)    101.8793         0.010000   
    146. D(B   9,B   8,B   3,B   2)    139.6716         0.010000   
    147. D(B   2,B   8,B   3,B   9)   -139.6716         0.010000   
    148. D(B   2,B   8,B   3,B   4)   -126.8465         0.010000   
    149. D(B   9,B   8,B   2,B   7)    101.3827         0.010000   
    150. D(B   9,B   8,B   2,B   3)    -38.7788         0.010000   
    151. D(B   9,B   8,B   2,B   1)     63.1005         0.010000   
    152. D(B   9,B   8,B   3,B   4)     12.8251         0.010000   
    153. D(B   3,B   8,B   2,B   7)    140.1616         0.010000   
    154. D(B   4,B   9,B   8,B   3)    -15.7834         0.013627   
    155. D(B   4,B   9,B   8,B   2)     19.2760         0.013627   
    156. D(B   3,B   9,B   8,B   2)     35.0594         0.013627   
    157. D(B   8,B   9,B   4,B  10)   -123.5022         0.010000   
    158. D(B   8,B   9,B   4,B   5)    -90.5091         0.010000   
    159. D(B   8,B   9,B   4,B   3)     15.5900         0.010000   
    160. D(B   3,B   9,B   4,B  10)   -139.0922         0.010000   
    161. D(B   3,B   9,B   4,B   5)   -106.0991         0.010000   
    162. D(B   8,B   9,B   3,B   4)   -165.1564         0.010000   
    163. D(B   8,B   9,B   3,B   2)    -42.7915         0.010000   
    164. D(B   4,B   9,B   3,B   8)    165.1564         0.010000   
    165. D(B   4,B   9,B   3,B   2)    122.3650         0.010000   
    166. D(B  11,B  10,B   5,B   4)    139.2955         0.010000   
    167. D(B   4,B  10,B   5,B  11)   -139.2955         0.010000   
    168. D(B   4,B  10,B   5,B   0)   -110.2510         0.010000   
    169. D(B  11,B  10,B   4,B   9)    102.1976         0.010000   
    170. D(B  11,B  10,B   4,B   5)    -35.8784         0.010000   
    171. D(B  11,B  10,B   4,B   3)     59.9325         0.010000   
    172. D(B  11,B  10,B   5,B   0)     29.0445         0.010000   
    173. D(B   5,B  10,B   4,B   9)    138.0760         0.010000   
    174. D(B   5,B  10,B   4,B   3)     95.8109         0.010000   
    175. D(B   6,B  11,B  10,B   5)    -98.4404         0.010000   
    176. D(B   6,B  11,B  10,B   4)    -58.7689         0.010000   
    177. D(B   5,B  11,B  10,B   4)     39.6715         0.010000   
    178. D(B   0,B  11,B  10,B   5)    -32.1540         0.010000   
    179. D(B  10,B  11,B   6,B   0)    104.8949         0.010000   
    180. D(B   5,B  11,B   6,B   7)    -39.1019         0.010000   
    181. D(B   5,B  11,B   6,B   1)     21.3733         0.010000   
    182. D(B   0,B  11,B   6,B   7)    -86.9716         0.010000   
    183. D(B   0,B  11,B   6,B   1)    -26.4964         0.010000   
    184. D(B  10,B  11,B   5,B   0)   -147.9579         0.010000   
    185. D(B   6,B  11,B   5,B  10)    103.4964         0.010000   
    186. D(B   6,B  11,B   5,B   4)     60.3834         0.010000   
    187. D(B   6,B  11,B   5,B   0)    -44.4615         0.010000   
    188. D(B   5,B  11,B   6,B   0)     47.8697         0.010000   
    189. D(B   0,B  11,B   5,B  10)    147.9579         0.010000   
    190. D(B   0,B  11,B   5,B   4)    104.8449         0.010000   
    191. D(B  10,B  11,B   0,B   5)     27.4427         0.010000   
    192. D(B   0,B  11,B  10,B   4)      7.5175         0.010000   
    193. D(B  10,B  11,B   0,B   1)    -78.2684         0.010000   
    194. D(B   6,B  11,B   0,B   5)    130.7782         0.010000   
    195. D(B   6,B  11,B   0,B   1)     25.0672         0.010000   
    196. D(B   5,B  11,B   0,B   6)   -130.7782         0.010000   
    197. D(B   5,B  11,B   0,B   1)   -105.7111         0.010000   
    -----------------------------------------------------------------

Number of atoms                         .... 12
Number of degrees of freedom            .... 197


         *************************************************************
         *                GEOMETRY OPTIMIZATION CYCLE   1            *
         *************************************************************
---------------------------------
CARTESIAN COORDINATES (ANGSTROEM)
---------------------------------
  B      1.835933    0.123243    0.763204
  B      0.696574    1.680876    0.780594
  B     -0.972591    1.632240    0.768324
  B     -1.739976    0.004263    0.795645
  B     -1.002516   -1.569509    0.641320
  B      0.981875   -1.539114    0.669770
  B      1.427786    0.853469   -0.712417
  B     -0.041340    1.978205   -0.562630
  B     -1.951747    0.608696   -0.739854
  B     -1.608401   -0.860001   -0.681040
  B      0.317676   -1.950899   -0.770279
  B      1.851488   -0.795042   -0.614179

----------------------------
CARTESIAN COORDINATES (A.U.)
----------------------------
  NO LB      ZA    FRAG     MASS         X           Y           Z
   0 B     5.0000    0    10.810    3.469411    0.232895    1.442246
   1 B     5.0000    0    10.810    1.316335    3.176395    1.475110
   2 B     5.0000    0    10.810   -1.837930    3.084486    1.451922
   3 B     5.0000    0    10.810   -3.288078    0.008057    1.503552
   4 B     5.0000    0    10.810   -1.894481   -2.965942    1.211920
   5 B     5.0000    0    10.810    1.855474   -2.908504    1.265681
   6 B     5.0000    0    10.810    2.698124    1.612823   -1.346273
   7 B     5.0000    0    10.810   -0.078122    3.738266   -1.063216
   8 B     5.0000    0    10.810   -3.688267    1.150268   -1.398122
   9 B     5.0000    0    10.810   -3.039437   -1.625167   -1.286979
  10 B     5.0000    0    10.810    0.600320   -3.686664   -1.455616
  11 B     5.0000    0    10.810    3.498805   -1.502412   -1.160630

--------------------------------
INTERNAL COORDINATES (ANGSTROEM)
--------------------------------
 B      0   0   0     0.000000000000     0.00000000     0.00000000
 B      1   0   0     1.929938250555     0.00000000     0.00000000
 B      2   1   0     1.669918606658   124.50802422     0.00000000
 B      3   2   1     1.799981641535   116.89564287     2.10483709
 B      4   3   2     1.744827107549   129.36368497   351.79809808
 B      1   2   3     1.871249697682   116.61510517     2.07673117
 B      1   2   3     1.696252190782    61.20618615    93.05661187
 B      2   1   3     1.561145117989   115.15134623   288.15822641
 B      4   3   2     1.663713835462    73.24209533   252.70591276
 B      9   4   3     1.509442650678    65.26567715   139.67163220
 B      6   1   2     1.638434515014   116.88363867    73.15077136
 B      1   2   3     1.655497625907   117.43403704    68.00755214

---------------------------
INTERNAL COORDINATES (A.U.)
---------------------------
 B      0   0   0     0.000000000000     0.00000000     0.00000000
 B      1   0   0     3.647054748928     0.00000000     0.00000000
 B      2   1   0     3.155688832523   124.50802422     0.00000000
 B      3   2   1     3.401472348588   116.89564287     2.10483709
 B      4   3   2     3.297245384310   129.36368497   351.79809808
 B      1   2   3     3.536149456802   116.61510517     2.07673117
 B      1   2   3     3.205452094641    61.20618615    93.05661187
 B      2   1   3     2.950136728308   115.15134623   288.15822641
 B      4   3   2     3.143963514239    73.24209533   252.70591276
 B      9   4   3     2.852433224641    65.26567715   139.67163220
 B      6   1   2     3.096192521741   116.88363867    73.15077136
 B      1   2   3     3.128437128321   117.43403704    68.00755214

---------------------
BASIS SET INFORMATION
---------------------
There are 1 groups of distinct atoms

 Group   1 Type B   : 7s4p1d contracted to 3s2p1d pattern {511/31/1}

Atom   0B    basis set group =>   1
Atom   1B    basis set group =>   1
Atom   2B    basis set group =>   1
Atom   3B    basis set group =>   1
Atom   4B    basis set group =>   1
Atom   5B    basis set group =>   1
Atom   6B    basis set group =>   1
Atom   7B    basis set group =>   1
Atom   8B    basis set group =>   1
Atom   9B    basis set group =>   1
Atom  10B    basis set group =>   1
Atom  11B    basis set group =>   1
---------------------------------
AUXILIARY/J BASIS SET INFORMATION
---------------------------------
There are 1 groups of distinct atoms

 Group   1 Type B   : 12s5p4d2f1g contracted to 6s4p3d1f1g pattern {711111/2111/211/2/1}

Atom   0B    basis set group =>   1
Atom   1B    basis set group =>   1
Atom   2B    basis set group =>   1
Atom   3B    basis set group =>   1
Atom   4B    basis set group =>   1
Atom   5B    basis set group =>   1
Atom   6B    basis set group =>   1
Atom   7B    basis set group =>   1
Atom   8B    basis set group =>   1
Atom   9B    basis set group =>   1
Atom  10B    basis set group =>   1
Atom  11B    basis set group =>   1


           ************************************************************
           *        Program running with 8 parallel MPI-processes     *
           *              working on a common directory               *
           ************************************************************
------------------------------------------------------------------------------
                             ORCA STARTUP CALCULATIONS
                           -- RI-GTO INTEGRALS CHOSEN --
------------------------------------------------------------------------------
------------------------------------------------------------------------------
                   ___                                                        
                  /   \      - P O W E R E D   B Y -                         
                 /     \                                                     
                 |  |  |   _    _      __       _____    __    __             
                 |  |  |  | |  | |    /  \     |  _  \  |  |  /  |          
                  \  \/   | |  | |   /    \    | | | |  |  | /  /          
                 / \  \   | |__| |  /  /\  \   | |_| |  |  |/  /          
                |  |  |   |  __  | /  /__\  \  |    /   |      \           
                |  |  |   | |  | | |   __   |  |    \   |  |\   \          
                \     /   | |  | | |  |  |  |  | |\  \  |  | \   \       
                 \___/    |_|  |_| |__|  |__|  |_| \__\ |__|  \__/        
                                                                              
                      - O R C A' S   B I G   F R I E N D -                    
                                      &                                       
                       - I N T E G R A L  F E E D E R -                       
                                                                              
 v1 FN, 2020, v2 2021, v3 2022-2024                                           
------------------------------------------------------------------------------


----------------------
SHARK INTEGRAL PACKAGE
----------------------

Number of atoms                             ...     12
Number of basis functions                   ...    168
Number of shells                            ...     72
Maximum angular momentum                    ...      2
Integral batch strategy                     ... SHARK/LIBINT Hybrid
RI-J (if used) integral strategy            ... SPLIT-RIJ (Revised 2003 algorithm where possible)
Printlevel                                  ...      1
Contraction scheme used                     ... SEGMENTED contraction
Prescreening option                         ... SCHWARTZ
   Thresh                                   ... 2.500e-11
   Tcut                                     ... 2.500e-12
   Tpresel                                  ... 2.500e-12 
Coulomb Range Separation                    ... NOT USED
Exchange Range Separation                   ... NOT USED
Multipole approximations                    ... NOT USED
Finite Nucleus Model                        ... NOT USED
CABS basis                                  ... NOT available
Auxiliary Coulomb fitting basis             ... AVAILABLE
   # of basis functions in Aux-J            ...    588
   # of shells in Aux-J                     ...    180
   Maximum angular momentum in Aux-J        ...      4
Auxiliary J/K fitting basis                 ... NOT available
Auxiliary Correlation fitting basis         ... NOT available
Auxiliary 'external' fitting basis          ... NOT available

Checking pre-screening integrals            ... done (  0.0 sec) Dimension = 72
   => SHARK Basis and OBASIS are compatible. Storing Pre-screening
Shell pair information
Shell pair cut-off parameter TPreSel        ...   2.5e-12
Total number of shell pairs                 ...      2628
Shell pairs after pre-screening             ...      2586
Total number of primitive shell pairs       ...     10596
Primitive shell pairs kept                  ...      7914
          la=0 lb=0:    624 shell pairs
          la=1 lb=0:    864 shell pairs
          la=1 lb=1:    300 shell pairs
          la=2 lb=0:    432 shell pairs
          la=2 lb=1:    288 shell pairs
          la=2 lb=2:     78 shell pairs

Checking whether 4 symmetric matrices of dimension 168 fit in memory
:Max Core in MB      =   2500.00
 MB in use           =      6.91
 MB left             =   2493.09
 MB needed           =      0.43
 Data fit in memory  = YES
Calculating RI/J V-Matrix + Cholesky decomp.... done (  0.0 sec)
Calculating Nuclear repulsion               ... done (  0.0 sec) ENN=    341.812448871424 Eh

Diagonalization of the overlap matrix:
Smallest eigenvalue                        ... 1.650e-04
Time for diagonalization                   ...    0.004 sec
Threshold for overlap eigenvalues          ... 1.000e-07
Number of eigenvalues below threshold      ... 0
Time for construction of square roots      ...    0.002 sec
Total time needed                          ...    0.008 sec

-------------------
DFT GRID GENERATION
-------------------

General Integration Accuracy     IntAcc      ... 4.388
Radial Grid Type                 RadialGrid  ... OptM3 with GC (2021)
Angular Grid (max. ang.)         AngularGrid ... 4 (Lebedev-302)
Angular grid pruning method      GridPruning ... 4 (adaptive)
Weight generation scheme         WeightScheme... mBecke (2022)
Basis function cutoff            BFCut       ... 1.0000e-11
Integration weight cutoff        WCut        ... 1.0000e-14
Partially contracted basis set               ... off
Rotationally invariant grid construction     ... off
Angular grids for H and He will be reduced by one unit

Total number of grid points                  ...    71014
Total number of batches                      ...     1115
Average number of points per batch           ...       63
Average number of grid points per atom       ...     5918
Grids setup in   0.7 sec
Initializing property integral containers    ... done (  0.0 sec)

SHARK setup successfully completed in   0.9 seconds

Maximum memory used throughout the entire STARTUP-calculation: 19.9 MB


           ************************************************************
           *        Program running with 8 parallel MPI-processes     *
           *              working on a common directory               *
           ************************************************************
-------------------------------------------------------------------------------
                                 ORCA GUESS
                   Start orbitals & Density for SCF / CASSCF
-------------------------------------------------------------------------------

------------
SCF SETTINGS
------------
Hamiltonian:
 Density Functional     Method          .... DFT(GTOs)
 Exchange Functional    Exchange        .... B88
   X-Alpha parameter    XAlpha          ....  0.666667
   Becke's b parameter  XBeta           ....  0.004200
 Correlation Functional Correlation     .... P86
 LDA part of GGA corr.  LDAOpt          .... PW91-LDA
 Gradients option       PostSCFGGA      .... off
   NL short-range parameter             ....  4.400000
 RI-approximation to the Coulomb term is turned on
   Number of AuxJ basis functions       .... 588


General Settings:
 Integral files         IntName         .... hex_antiprism_nn1.70_perturb1
 Hartree-Fock type      HFTyp           .... RHF
 Total Charge           Charge          ....    0
 Multiplicity           Mult            ....    1
 Number of Electrons    NEL             ....   60
 Basis Dimension        Dim             ....  168
 Nuclear Repulsion      ENuc            ....    341.8124488714 Eh

Convergence Acceleration:
 AO-DIIS                CNVDIIS         .... on
   Start iteration      DIISMaxIt       ....     0
   Startup error        DIISStart       ....  0.200000
   # of expansion vecs  DIISMaxEq       ....     5
   Bias factor          DIISBfac        ....   1.050
   Max. coefficient     DIISMaxC        ....  10.000
 MO-DIIS                CNVKDIIS        .... off
 Trust-Rad. Augm. Hess. CNVTRAH         .... auto
   Auto Start mean grad. ratio tolernc. ....  1.125000
   Auto Start start iteration           ....    50
   Auto Start num. interpolation iter.  ....    10
   Max. Number of Micro iterations      ....    24
   Max. Number of Macro iterations      .... Maxiter - #DIIS iter
   Number of Davidson start vectors     ....     2
   Converg. threshold    (grad. norm)   ....   1.000e-05
   Grad. Scal. Fac. for Micro threshold ....   0.100
   Minimum threshold for Micro iter.    ....   1.000e-02
   NR start threshold (gradient norm)   ....   1.000e-04
   Initial trust radius                 ....   0.400
   Minimum AH scaling param. (alpha)    ....   1.000
   Maximum AH scaling param. (alpha)    .... 1000.000
   Quad. conv. algorithm                .... NR
   White noise on init. David. guess    .... on
   Maximum white noise                  ....   0.010
   Pseudo random numbers                .... off
   Inactive MOs                         .... canonical
   Orbital update algorithm             .... Taylor
   Preconditioner                       .... Diag
   Full preconditioner red. dimension   ....   250
 SOSCF                 CNVSOSCF           .... on
   Start iteration     SOSCFMaxIt         ....   150
   Startup grad/error  SOSCFStart         ....  0.001000
   Hessian update      SOSCFHessUp        .... L-BFGS
   Autom. constraints  SOSCFAutoConstrain .... off
 Level Shifting         CNVShift        .... on
   Level shift para.    LevelShift      ....    0.2500
   Turn off err/grad.   ShiftErr        ....    0.0000
 Zerner damping         CNVZerner       .... off
 Static damping         CNVDamp         .... on
   Fraction old density DampFac         ....    0.8500
   Max. Damping (<1)    DampMax         ....    0.9800
   Min. Damping (>=0)   DampMin         ....    0.0000
   Turn off err/grad.   DampErr         ....    0.0300

SCF Procedure:
 Maximum # iterations   MaxIter         ....   125
 SCF integral mode      SCFMode         .... Direct
   Integral package                     .... SHARK and LIBINT hybrid scheme
 Reset frequency        DirectResetFreq ....    20
 Integral Threshold     Thresh          ....  2.500e-11 Eh
 Primitive CutOff       TCut            ....  2.500e-12 Eh

Convergence Tolerance:
 Convergence Check Mode ConvCheckMode   .... Total+1el-Energy
 Convergence forced     ConvForced      .... 0
 Energy Change          TolE            ....  1.000e-08 Eh
 1-El. energy change                    ....  1.000e-05 Eh
 Orbital Gradient       TolG            ....  1.000e-05
 Orbital Rotation angle TolX            ....  1.000e-05
 DIIS Error             TolErr          ....  5.000e-07

------------------------------
INITIAL GUESS: MODEL POTENTIAL
------------------------------
Loading Hartree-Fock densities                     ... done
Calculating cut-offs                               ... done
Initializing the effective Hamiltonian             ... done
Setting up the integral package (SHARK)            ... done
Starting the Coulomb interaction                   ... done (   0.0 sec)
Making the grid                                    ... done (   0.1 sec)
Mapping shells                                     ... done
Starting the XC term evaluation                    ... done (   0.0 sec)
  promolecular density results
     # of electrons  =     59.995566025
     EX              =    -45.676466443
     EC              =     -1.986467023
     EX+EC           =    -47.662933466
Transforming the Hamiltonian                       ... done (   0.0 sec)
Diagonalizing the Hamiltonian                      ... done (   0.0 sec)
Back transforming the eigenvectors                 ... done (   0.0 sec)
Now organizing SCF variables                       ... done
                      ------------------
                      INITIAL GUESS DONE (   0.2 sec)
                      ------------------
             **** ENERGY FILE WAS UPDATED (hex_antiprism_nn1.70_perturb1.en.tmp) ****
Finished Guess after   0.7 sec
Maximum memory used throughout the entire GUESS-calculation: 9.7 MB


           ************************************************************
           *        Program running with 8 parallel MPI-processes     *
           *              working on a common directory               *
           ************************************************************

-------------------------------------------------------------------------------------------
                                      ORCA LEAN-SCF
                              memory conserving SCF solver
-------------------------------------------------------------------------------------------

----------------------------------------D-I-I-S--------------------------------------------
Iteration    Energy (Eh)           Delta-E    RMSDP     MaxDP     DIISErr   Damp  Time(sec)
-------------------------------------------------------------------------------------------
               ***  Starting incremental Fock matrix formation  ***
    1    -296.9692895576069986     0.00e+00  1.06e-02  5.46e-02  1.23e-01  0.850   0.5
Warning: op=0 Small HOMO/LUMO gap (  -0.035) - skipping pre-diagonalization
         Will do a full diagonalization
    2    -297.1131924399412583    -1.44e-01  1.20e-02  5.22e-02  9.24e-02  0.850   0.4
                               ***Turning on AO-DIIS***
    3    -297.1979305702781176    -8.47e-02  6.78e-03  4.41e-02  6.19e-02  0.850   0.3
    4    -297.2431281575471758    -4.52e-02  4.27e-03  2.91e-02  4.43e-02  0.850   0.4
    5    -297.2738406887281144    -3.07e-02  3.01e-03  2.05e-02  3.29e-02  0.850   0.3
    6    -297.2969675249100874    -2.31e-02  2.32e-03  1.56e-02  2.60e-02  0.850   0.3
    7    -297.3155811240881121    -1.86e-02  1.26e-02  8.07e-02  2.16e-02  0.000   0.4
    8    -297.4138663407557033    -9.83e-02  2.27e-03  1.43e-02  6.56e-03  0.000   0.3
    9    -297.4147045562184530    -8.38e-04  8.53e-04  5.22e-03  3.60e-03  0.000   0.3
   10    -297.4149445055237493    -2.40e-04  4.24e-04  2.47e-03  1.32e-03  0.000   0.3
                              *** Initializing SOSCF ***
---------------------------------------S-O-S-C-F--------------------------------------
Iteration    Energy (Eh)           Delta-E    RMSDP     MaxDP     MaxGrad    Time(sec)
--------------------------------------------------------------------------------------
   11    -297.4150044250275187    -5.99e-05  2.80e-04  1.94e-03  6.00e-04     0.4
               *** Restarting incremental Fock matrix formation ***
   12    -297.4150283534712571    -2.39e-05  4.09e-04  3.58e-03  4.45e-04     0.4
   13    -297.4150443740269338    -1.60e-05  1.02e-03  9.83e-03  3.72e-04     0.5
   14    -297.4150346840301609     9.69e-06  4.52e-04  3.75e-03  8.02e-04     1.0
   15    -297.4150545643152554    -1.99e-05  2.35e-04  1.68e-03  1.32e-04     0.4
   16    -297.4150513546695720     3.21e-06  1.62e-04  1.29e-03  3.12e-04     0.5
   17    -297.4150561897968146    -4.84e-06  8.33e-05  5.79e-04  5.65e-05     0.4
   18    -297.4150558093932659     3.80e-07  4.81e-05  3.31e-04  9.56e-05     0.3
   19    -297.4150564642998233    -6.55e-07  2.55e-05  1.51e-04  1.97e-05     0.6
   20    -297.4150564333108377     3.10e-08  1.48e-05  8.01e-05  3.84e-05     0.6
   21    -297.4150565115460267    -7.82e-08  1.05e-05  5.38e-05  8.41e-06     0.4
   22    -297.4150565177756107    -6.23e-09  1.03e-05  5.11e-05  5.69e-06     0.3
                 **** Energy Check signals convergence ****

               *****************************************************
               *                     SUCCESS                       *
               *           SCF CONVERGED AFTER  22 CYCLES          *
               *****************************************************

             **** ENERGY FILE WAS UPDATED (hex_antiprism_nn1.70_perturb1.en.tmp) ****

----------------
TOTAL SCF ENERGY
----------------

Total Energy       :       -297.41505652539740 Eh           -8093.07513 eV

Components:
Nuclear Repulsion  :        341.81244887142429 Eh            9301.18960 eV
Electronic Energy  :       -639.22750539682170 Eh          -17394.26473 eV
One Electron Energy:      -1072.19068265884312 Eh          -29175.79174 eV
Two Electron Energy:        432.96317726202142 Eh           11781.52701 eV

Virial components:
Potential Energy   :       -589.29792864566127 Eh          -16035.61187 eV
Kinetic Energy     :        291.88287212026387 Eh            7942.53674 eV
Virial Ratio       :          2.01895343966211

DFT components:
N(Alpha)           :       30.000069720968 electrons
N(Beta)            :       30.000069720968 electrons
N(Total)           :       60.000139441936 electrons
E(X)               :      -46.069391755522 Eh       
E(C)               :       -2.017480454288 Eh       
E(XC)              :      -48.086872209810 Eh       

---------------
SCF CONVERGENCE
---------------

  Last Energy change         ...    6.2296e-09  Tolerance :   1.0000e-08
  Last MAX-Density change    ...    5.1126e-05  Tolerance :   1.0000e-07
  Last RMS-Density change    ...    1.0310e-05  Tolerance :   5.0000e-09
  Last DIIS Error            ...    6.0046e-04  Tolerance :   5.0000e-07
  Last Orbital Gradient      ...    5.6912e-06  Tolerance :   1.0000e-05
  Last Orbital Rotation      ...    1.4535e-04  Tolerance :   1.0000e-05


----------------
ORBITAL ENERGIES
----------------

  NO   OCC          E(Eh)            E(eV) 
   0   2.0000      -6.610641      -179.8847 
   1   2.0000      -6.600178      -179.6000 
   2   2.0000      -6.598163      -179.5451 
   3   2.0000      -6.597074      -179.5155 
   4   2.0000      -6.596877      -179.5102 
   5   2.0000      -6.596791      -179.5078 
   6   2.0000      -6.595086      -179.4614 
   7   2.0000      -6.590818      -179.3453 
   8   2.0000      -6.586363      -179.2241 
   9   2.0000      -6.581609      -179.0947 
  10   2.0000      -6.576184      -178.9471 
  11   2.0000      -6.568591      -178.7405 
  12   2.0000      -0.660243       -17.9661 
  13   2.0000      -0.615280       -16.7426 
  14   2.0000      -0.595716       -16.2103 
  15   2.0000      -0.511676       -13.9234 
  16   2.0000      -0.475818       -12.9477 
  17   2.0000      -0.402151       -10.9431 
  18   2.0000      -0.379312       -10.3216 
  19   2.0000      -0.372055       -10.1241 
  20   2.0000      -0.344055        -9.3622 
  21   2.0000      -0.331525        -9.0213 
  22   2.0000      -0.322235        -8.7685 
  23   2.0000      -0.293033        -7.9738 
  24   2.0000      -0.262847        -7.1524 
  25   2.0000      -0.261642        -7.1196 
  26   2.0000      -0.254966        -6.9380 
  27   2.0000      -0.246633        -6.7112 
  28   2.0000      -0.209193        -5.6924 
  29   2.0000      -0.187102        -5.0913 
  30   0.0000      -0.176923        -4.8143 
  31   0.0000      -0.153714        -4.1828 
  32   0.0000      -0.147688        -4.0188 
  33   0.0000      -0.146025        -3.9735 
  34   0.0000      -0.124404        -3.3852 
  35   0.0000      -0.119995        -3.2652 
  36   0.0000      -0.109587        -2.9820 
  37   0.0000      -0.083236        -2.2650 
  38   0.0000      -0.070516        -1.9188 
  39   0.0000      -0.058654        -1.5961 
  40   0.0000      -0.023322        -0.6346 
*Only the first 10 virtual orbitals were printed.

                    ********************************
                    * MULLIKEN POPULATION ANALYSIS *
                    ********************************

-----------------------
MULLIKEN ATOMIC CHARGES
-----------------------
   0 B :    0.042245
   1 B :    0.049183
   2 B :   -0.007368
   3 B :    0.152387
   4 B :    0.004616
   5 B :   -0.014695
   6 B :   -0.073708
   7 B :   -0.080464
   8 B :   -0.050142
   9 B :   -0.055158
  10 B :   -0.055625
  11 B :    0.088728
Sum of atomic charges:    0.0000000

--------------------------------
MULLIKEN REDUCED ORBITAL CHARGES
--------------------------------
  0 B s       :     2.972665  s :     2.972665
      pz      :     0.684407  p :     1.941149
      px      :     0.485248
      py      :     0.771493
      dz2     :     0.014532  d :     0.043941
      dxz     :     0.008859
      dyz     :     0.007941
      dx2y2   :     0.005754
      dxy     :     0.006855

  1 B s       :     2.864677  s :     2.864677
      pz      :     0.703671  p :     2.035403
      px      :     0.693020
      py      :     0.638712
      dz2     :     0.014289  d :     0.050736
      dxz     :     0.012175
      dyz     :     0.008528
      dx2y2   :     0.006954
      dxy     :     0.008789

  2 B s       :     2.947030  s :     2.947030
      pz      :     0.750726  p :     2.015542
      px      :     0.681633
      py      :     0.583183
      dz2     :     0.011776  d :     0.044796
      dxz     :     0.009436
      dyz     :     0.006466
      dx2y2   :     0.007564
      dxy     :     0.009555

  3 B s       :     2.811155  s :     2.811155
      pz      :     0.661607  p :     1.986747
      px      :     0.580771
      py      :     0.744369
      dz2     :     0.013821  d :     0.049710
      dxz     :     0.010195
      dyz     :     0.012168
      dx2y2   :     0.006402
      dxy     :     0.007126

  4 B s       :     2.932382  s :     2.932382
      pz      :     0.745927  p :     2.022902
      px      :     0.691917
      py      :     0.585058
      dz2     :     0.011824  d :     0.040101
      dxz     :     0.006517
      dyz     :     0.007598
      dx2y2   :     0.007756
      dxy     :     0.006406

  5 B s       :     2.873121  s :     2.873121
      pz      :     0.697809  p :     2.098909
      px      :     0.667963
      py      :     0.733137
      dz2     :     0.013590  d :     0.042665
      dxz     :     0.008343
      dyz     :     0.008323
      dx2y2   :     0.006219
      dxy     :     0.006190

  6 B s       :     3.036064  s :     3.036064
      pz      :     0.735374  p :     1.989937
      px      :     0.551255
      py      :     0.703308
      dz2     :     0.013919  d :     0.047707
      dxz     :     0.008496
      dyz     :     0.010035
      dx2y2   :     0.007758
      dxy     :     0.007499

  7 B s       :     2.999352  s :     2.999352
      pz      :     0.677575  p :     2.037926
      px      :     0.730581
      py      :     0.629770
      dz2     :     0.013988  d :     0.043185
      dxz     :     0.008074
      dyz     :     0.009357
      dx2y2   :     0.005616
      dxy     :     0.006149

  8 B s       :     3.128584  s :     3.128584
      pz      :     0.795729  p :     1.879118
      px      :     0.419934
      py      :     0.663455
      dz2     :     0.011407  d :     0.042440
      dxz     :     0.005731
      dyz     :     0.011237
      dx2y2   :     0.005681
      dxy     :     0.008384

  9 B s       :     2.886170  s :     2.886170
      pz      :     0.691896  p :     2.116458
      px      :     0.625474
      py      :     0.799087
      dz2     :     0.014705  d :     0.052531
      dxz     :     0.007750
      dyz     :     0.015330
      dx2y2   :     0.006132
      dxy     :     0.008615

 10 B s       :     3.265485  s :     3.265485
      pz      :     0.768763  p :     1.750651
      px      :     0.615075
      py      :     0.366813
      dz2     :     0.013036  d :     0.039489
      dxz     :     0.008613
      dyz     :     0.006390
      dx2y2   :     0.005984
      dxy     :     0.005467

 11 B s       :     2.826314  s :     2.826314
      pz      :     0.715067  p :     2.034569
      px      :     0.601156
      py      :     0.718346
      dz2     :     0.014376  d :     0.050388
      dxz     :     0.007991
      dyz     :     0.011140
      dx2y2   :     0.008206
      dxy     :     0.008676



                     *******************************
                     * LOEWDIN POPULATION ANALYSIS *
                     *******************************

----------------------
LOEWDIN ATOMIC CHARGES
----------------------
   0 B :   -0.001070
   1 B :   -0.036418
   2 B :    0.005555
   3 B :   -0.008251
   4 B :   -0.008343
   5 B :   -0.008642
   6 B :    0.056375
   7 B :   -0.020855
   8 B :    0.063748
   9 B :   -0.042761
  10 B :    0.038134
  11 B :   -0.037474

-------------------------------
LOEWDIN REDUCED ORBITAL CHARGES
-------------------------------
  0 B s       :     2.741170  s :     2.741170
      pz      :     0.818953  p :     2.152077
      px      :     0.529019
      py      :     0.804104
      dz2     :     0.037751  d :     0.107823
      dxz     :     0.015719
      dyz     :     0.021593
      dx2y2   :     0.013183
      dxy     :     0.019578

  1 B s       :     2.694606  s :     2.694606
      pz      :     0.842791  p :     2.213645
      px      :     0.741462
      py      :     0.629391
      dz2     :     0.037087  d :     0.128167
      dxz     :     0.030984
      dyz     :     0.017290
      dx2y2   :     0.020188
      dxy     :     0.022618

  2 B s       :     2.739584  s :     2.739584
      pz      :     0.824427  p :     2.140649
      px      :     0.710730
      py      :     0.605492
      dz2     :     0.028580  d :     0.114212
      dxz     :     0.025312
      dyz     :     0.012755
      dx2y2   :     0.022777
      dxy     :     0.024788

  3 B s       :     2.716763  s :     2.716763
      pz      :     0.801828  p :     2.160653
      px      :     0.543181
      py      :     0.815643
      dz2     :     0.041415  d :     0.130836
      dxz     :     0.016673
      dyz     :     0.033002
      dx2y2   :     0.019556
      dxy     :     0.020189

  4 B s       :     2.736843  s :     2.736843
      pz      :     0.860838  p :     2.173482
      px      :     0.725663
      py      :     0.586981
      dz2     :     0.028434  d :     0.098018
      dxz     :     0.015756
      dyz     :     0.016874
      dx2y2   :     0.021710
      dxy     :     0.015244

  5 B s       :     2.726514  s :     2.726514
      pz      :     0.838293  p :     2.181244
      px      :     0.690526
      py      :     0.652425
      dz2     :     0.033636  d :     0.100884
      dxz     :     0.020017
      dyz     :     0.015869
      dx2y2   :     0.015287
      dxy     :     0.016075

  6 B s       :     2.746772  s :     2.746772
      pz      :     0.834821  p :     2.080807
      px      :     0.543244
      py      :     0.702741
      dz2     :     0.034102  d :     0.116046
      dxz     :     0.016269
      dyz     :     0.024603
      dx2y2   :     0.019909
      dxy     :     0.021163

  7 B s       :     2.733100  s :     2.733100
      pz      :     0.803992  p :     2.184381
      px      :     0.791817
      py      :     0.588572
      dz2     :     0.036080  d :     0.103374
      dxz     :     0.022559
      dyz     :     0.017485
      dx2y2   :     0.011276
      dxy     :     0.015973

  8 B s       :     2.764593  s :     2.764593
      pz      :     0.861840  p :     2.070119
      px      :     0.501196
      py      :     0.707082
      dz2     :     0.028867  d :     0.101541
      dxz     :     0.010941
      dyz     :     0.027907
      dx2y2   :     0.014863
      dxy     :     0.018962

  9 B s       :     2.713119  s :     2.713119
      pz      :     0.792709  p :     2.197033
      px      :     0.594883
      py      :     0.809442
      dz2     :     0.038478  d :     0.132608
      dxz     :     0.015053
      dyz     :     0.039620
      dx2y2   :     0.017941
      dxy     :     0.021517

 10 B s       :     2.845718  s :     2.845718
      pz      :     0.938530  p :     2.026479
      px      :     0.674501
      py      :     0.413448
      dz2     :     0.029176  d :     0.089668
      dxz     :     0.021217
      dyz     :     0.012312
      dx2y2   :     0.011772
      dxy     :     0.015191

 11 B s       :     2.701833  s :     2.701833
      pz      :     0.836342  p :     2.208093
      px      :     0.616844
      py      :     0.754907
      dz2     :     0.036473  d :     0.127548
      dxz     :     0.016687
      dyz     :     0.030217
      dx2y2   :     0.020714
      dxy     :     0.023456



                      *****************************
                      * MAYER POPULATION ANALYSIS *
                      *****************************

  NA   - Mulliken gross atomic population
  ZA   - Total nuclear charge
  QA   - Mulliken gross atomic charge
  VA   - Mayer's total valence
  BVA  - Mayer's bonded valence
  FA   - Mayer's free valence

  ATOM       NA         ZA         QA         VA         BVA        FA
  0 B      4.9578     5.0000     0.0422     3.6705     3.6705    -0.0000
  1 B      4.9508     5.0000     0.0492     3.7750     3.7750    -0.0000
  2 B      5.0074     5.0000    -0.0074     4.0086     4.0086     0.0000
  3 B      4.8476     5.0000     0.1524     3.6002     3.6002     0.0000
  4 B      4.9954     5.0000     0.0046     3.8772     3.8772     0.0000
  5 B      5.0147     5.0000    -0.0147     3.7696     3.7696     0.0000
  6 B      5.0737     5.0000    -0.0737     3.8122     3.8122     0.0000
  7 B      5.0805     5.0000    -0.0805     3.7757     3.7757    -0.0000
  8 B      5.0501     5.0000    -0.0501     3.6701     3.6701     0.0000
  9 B      5.0552     5.0000    -0.0552     3.8506     3.8506     0.0000
 10 B      5.0556     5.0000    -0.0556     3.3699     3.3699     0.0000
 11 B      4.9113     5.0000     0.0887     3.7548     3.7548     0.0000

  Mayer bond orders larger than 0.100000
B(  0-B ,  1-B ) :   0.9000 B(  0-B ,  5-B ) :   0.9689 B(  0-B ,  6-B ) :   0.6556 
B(  0-B , 10-B ) :   0.1378 B(  0-B , 11-B ) :   0.7481 B(  1-B ,  2-B ) :   1.0236 
B(  1-B ,  3-B ) :   0.1379 B(  1-B ,  5-B ) :   0.1068 B(  1-B ,  6-B ) :   0.5613 
B(  1-B ,  7-B ) :   0.8340 B(  2-B ,  3-B ) :   0.8172 B(  2-B ,  6-B ) :   0.1611 
B(  2-B ,  7-B ) :   0.9381 B(  2-B ,  8-B ) :   0.6237 B(  2-B ,  9-B ) :   0.1289 
B(  3-B ,  4-B ) :   1.0355 B(  3-B ,  5-B ) :   0.1097 B(  3-B ,  8-B ) :   0.7096 
B(  3-B ,  9-B ) :   0.5537 B(  4-B ,  5-B ) :   0.7809 B(  4-B ,  8-B ) :   0.2477 
B(  4-B ,  9-B ) :   0.9522 B(  4-B , 10-B ) :   0.5572 B(  5-B ,  6-B ) :   0.1998 
B(  5-B , 10-B ) :   0.7092 B(  5-B , 11-B ) :   0.6940 B(  6-B ,  7-B ) :   0.9793 
B(  6-B , 10-B ) :   0.1013 B(  6-B , 11-B ) :   1.0138 B(  7-B ,  8-B ) :   0.5796 
B(  8-B ,  9-B ) :   1.3413 B(  9-B , 10-B ) :   0.5375 B( 10-B , 11-B ) :   0.9775 


-------
TIMINGS
-------

Total SCF time: 0 days 0 hours 0 min 10 sec 

Total time                  ....      10.342 sec
Sum of individual times     ....       9.948 sec  ( 96.2%)

SCF preparation             ....       0.657 sec  (  6.4%)
Fock matrix formation       ....       7.817 sec  ( 75.6%)
  Startup                   ....       0.020 sec  (  0.3% of F)
  Split-RI-J                ....       2.512 sec  ( 32.1% of F)
  XC integration            ....       5.060 sec  ( 64.7% of F)
    XC Preparation          ....       0.000 sec  (  0.0% of XC)
    Basis function eval.    ....       1.084 sec  ( 21.4% of XC)
    Density eval.           ....       0.821 sec  ( 16.2% of XC)
    XC-Functional eval.     ....       0.128 sec  (  2.5% of XC)
    XC-Potential eval.      ....       0.961 sec  ( 19.0% of XC)
Diagonalization             ....       0.000 sec  (  0.0%)
Density matrix formation    ....       0.250 sec  (  2.4%)
Total Energy calculation    ....       0.118 sec  (  1.1%)
Population analysis         ....       0.047 sec  (  0.5%)
Orbital Transformation      ....       0.037 sec  (  0.4%)
Orbital Orthonormalization  ....       0.000 sec  (  0.0%)
DIIS solution               ....       0.334 sec  (  3.2%)
SOSCF solution              ....       0.687 sec  (  6.6%)
Finished LeanSCF after  10.4 sec

Maximum memory used throughout the entire LEANSCF-calculation: 10.2 MB


-------------------------------------------------------------------------------
                          DFT DISPERSION CORRECTION                            
                                                                               
                              DFTD3 V3.1  Rev 1                                
                          USING Becke-Johnson damping                          
-------------------------------------------------------------------------------
The BP86 functional is recognized
Active option DFTDOPT                   ...         4   

molecular C6(AA) [au] = 4565.073385 


            DFT-D V3
 parameters
 s6 scaling factor         :     1.0000 
 a1 scaling factor         :     0.3946 
 s8 scaling factor         :     3.2822 
 a2 scaling factor         :     4.8516 
 ad hoc parameters k1-k3   :    16.0000     1.3333    -4.0000 

 Edisp/kcal,au: -23.066683186319  -0.036759095566 
 E6   /kcal   :  -6.575388318 
 E8   /kcal   : -16.491294868 
 % E8         :  71.494001694 

-------------------------   ----------------
Dispersion correction           -0.036759096
-------------------------   ----------------


-------------------------   --------------------
FINAL SINGLE POINT ENERGY      -297.451815620964
-------------------------   --------------------



           ************************************************************
           *        Program running with 8 parallel MPI-processes     *
           *              working on a common directory               *
           ************************************************************
------------------------------------------------------------------------------
                         ORCA SCF GRADIENT CALCULATION
------------------------------------------------------------------------------

Nuc. rep. gradient        (SHARK) ... done (  0.0 sec)
HCore & Overlap gradient  (SHARK) ... done (  0.1 sec)
Split-RIJ-J gradient      (SHARK) ... done (  0.4 sec)
XC gradient                       ... done (  1.0 sec)
Dispersion correction             ... done (  0.1 sec)

-------------------
DISPERSION GRADIENT
-------------------

   1   B   :    0.000358850    0.000297138   -0.000071642
   2   B   :    0.000860450   -0.000027780   -0.000391786
   3   B   :   -0.001667347   -0.000920575   -0.001538120
   4   B   :   -0.000422701    0.000234286   -0.000454667
   5   B   :    0.000678004   -0.000708097   -0.001119538
   6   B   :    0.000476680   -0.000442982   -0.000134073
   7   B   :   -0.000073142    0.000686797    0.000678561
   8   B   :   -0.000141012   -0.000039564   -0.000230298
   9   B   :    0.001006952    0.001630800    0.002041979
  10   B   :    0.000229212   -0.000806018   -0.000066334
  11   B   :   -0.000145844    0.001507054    0.001445027
  12   B   :   -0.001160101   -0.001411059   -0.000159109

Difference to translation invariance:
           :    0.0000000000    0.0000000000   -0.0000000000

Difference to rotation invariance:
           :   -0.0000000000   -0.0000000000    0.0000000000

Norm of the Dispersion gradient    ...    0.0052450802
RMS gradient                       ...    0.0008741800
MAX gradient                       ...    0.0020419787

------------------
CARTESIAN GRADIENT
------------------

   1   B   :    0.057340491    0.007865551   -0.024557896
   2   B   :   -0.035288778    0.052158079   -0.017398918
   3   B   :    0.009184493    0.048874652    0.014424617
   4   B   :   -0.025941489    0.010855473   -0.006099265
   5   B   :   -0.050339439   -0.028745948   -0.001333685
   6   B   :    0.007792086   -0.053692403   -0.016411078
   7   B   :    0.040360503   -0.019634932   -0.004546527
   8   B   :   -0.004867815    0.042076136    0.045868537
   9   B   :   -0.041973665   -0.073423225   -0.016966151
  10   B   :   -0.022089577    0.054190499    0.015302527
  11   B   :    0.004412586   -0.051114077   -0.005148985
  12   B   :    0.061410604    0.010590195    0.016866823

Difference to translation invariance:
           :   -0.0000000000    0.0000000000   -0.0000000000

Difference to rotation invariance:
           :   -0.0009549578    0.0004320667   -0.0005501510

Norm of the Cartesian gradient     ...    0.2053403960
RMS gradient                       ...    0.0342233993
MAX gradient                       ...    0.0734232250

-------
TIMINGS
-------

Total SCF gradient time     ....        1.461 sec

Densities                   ....       0.001 sec  (  0.1%)
One electron gradient       ....       0.052 sec  (  3.5%)
RI-J Coulomb gradient       ....       0.384 sec  ( 26.3%)
XC gradient                 ....       0.967 sec  ( 66.2%)

Maximum memory used throughout the entire SCFGRAD-calculation: 29.7 MB
------------------------------------------------------------------------------
                         ORCA GEOMETRY RELAXATION STEP
------------------------------------------------------------------------------

Reading the OPT-File                    .... done
Getting information on internals        .... done
Copying old internal coords+grads       .... done
Making the new internal coordinates     .... (2022 redundants) done
Validating the new internal coordinates .... (2022 redundants) done
Calculating the B-matrix                .... done
Calculating the G,G- and P matrices     .... done
Transforming gradient to internals      .... done
Projecting the internal gradient        .... done
Number of atoms                         ....  12
Number of internal coordinates          .... 197
Current Energy                          ....  -297.451815621 Eh
Current gradient norm                   ....     0.205340396 Eh/bohr
Maximum allowed component of the step   ....  0.300
Current trust radius                    ....  0.300
Evaluating the initial hessian          ....  (Almloef) done
Projecting the Hessian                  .... done
Forming the augmented Hessian           .... done
Diagonalizing the augmented Hessian     .... done
Last element of RFO vector              ....  0.836690798
Lowest eigenvalues of augmented Hessian:
 -0.101186540  0.019540050  0.025209655  0.032217389  0.036336444
Length of the computed step             ....  0.654573412
Warning: the length of the step is outside the trust region - taking restricted step instead
The input lambda is                     ....     0.018144
   iter:   5  x=    0.008414  g=  980.388306 f(x)=     4.713362
   iter:  10  x=   -0.291946  g=    1.298940 f(x)=     0.124085
   iter:  15  x=   -0.377456  g=    0.346659 f(x)=     0.000000
The output lambda is                    ....    -0.377456 (16 iterations)
The final length of the internal step   ....  0.300000000
Converting the step to Cartesian space:
 Initial RMS(Int)=    0.0213741150
Transforming coordinates:
 Iter   0:  RMS(Cart)=    0.0507945773 RMS(Int)=    0.0213636953
done
Storing new coordinates                 .... done

                                .--------------------.
          ----------------------|Geometry convergence|-------------------------
          Item                value                   Tolerance       Converged
          ---------------------------------------------------------------------
          RMS gradient        0.0113164548            0.0001000000      NO
          MAX gradient        0.0490250275            0.0003000000      NO
          RMS step            0.0213741150            0.0020000000      NO
          MAX step            0.0981709223            0.0040000000      NO
          -------------------------------------------------------------------------
          ........................................................
          Max(Bonds)      0.0519      Max(Angles)    2.49
          Max(Dihed)        1.36      Max(Improp)    0.00
          ---------------------------------------------------------------------

The optimization has not yet converged - more geometry cycles are needed


    ---------------------------------------------------------------------------
                         Redundant Internal Coordinates
                            (Angstroem and degrees)

        Definition                    Value    dE/dq     Step     New-Value
    ----------------------------------------------------------------------------
     1. B(B   1,B   0)                1.9299  0.045699 -0.0463    1.8837   
     2. B(B   2,B   1)                1.6699  0.020532 -0.0171    1.6528   
     3. B(B   3,B   2)                1.8000  0.032145 -0.0341    1.7658   
     4. B(B   4,B   3)                1.7448  0.031762 -0.0280    1.7168   
     5. B(B   5,B   4)                1.9848  0.044529 -0.0486    1.9362   
     6. B(B   5,B   0)                1.8712  0.037506 -0.0371    1.8341   
     7. B(B   6,B   0)                1.6963 -0.005038  0.0039    1.7001   
     8. B(B   6,B   1)                1.8570  0.016014 -0.0187    1.8382   
     9. B(B   7,B   6)                1.8563  0.041760 -0.0427    1.8136   
    10. B(B   7,B   2)                1.6608  0.005673 -0.0055    1.6553   
    11. B(B   7,B   1)                1.5611 -0.013590  0.0112    1.5724   
    12. B(B   8,B   3)                1.6637 -0.007208  0.0042    1.6679   
    13. B(B   8,B   2)                2.0691  0.049025 -0.0519    2.0171   
    14. B(B   9,B   4)                1.6184  0.013099 -0.0093    1.6091   
    15. B(B   9,B   3)                1.7161 -0.008687  0.0051    1.7212   
    16. B(B   9,B   8)                1.5094 -0.027313  0.0178    1.5273   
    17. B(B  10,B   5)                1.6384  0.000677 -0.0016    1.6368   
    18. B(B  10,B   4)                1.9700  0.039282 -0.0426    1.9274   
    19. B(B  11,B  10)                1.9269  0.040530 -0.0417    1.8852   
    20. B(B  11,B   6)                1.7049  0.024358 -0.0219    1.6830   
    21. B(B  11,B   5)                1.7200  0.015809 -0.0152    1.7048   
    22. B(B  11,B   0)                1.6555  0.001363 -0.0007    1.6548   
    23. A(B   1,B   0,B   6)           61.21 -0.003184    0.27     61.48   
    24. A(B   1,B   0,B  11)          117.43  0.005022   -0.51    116.92   
    25. A(B   5,B   0,B   6)          103.25  0.003217   -0.25    103.00   
    26. A(B   1,B   0,B   5)          116.62 -0.002847    0.34    116.95   
    27. A(B   5,B   0,B  11)           57.99 -0.002213    0.25     58.24   
    28. A(B   6,B   0,B  11)           61.14  0.009663   -0.94     60.20   
    29. A(B   0,B   1,B   6)           53.18 -0.010532    1.15     54.33   
    30. A(B   2,B   1,B   7)           61.76  0.000180   -0.05     61.71   
    31. A(B   6,B   1,B   7)           65.12  0.013863   -1.43     63.69   
    32. A(B   0,B   1,B   2)          124.51  0.001425   -0.21    124.30   
    33. A(B   0,B   1,B   7)          115.15  0.003079   -0.29    114.86   
    34. A(B   2,B   1,B   6)          112.01  0.010016   -1.04    110.96   
    35. A(B   3,B   2,B   7)          116.08  0.007582   -0.76    115.32   
    36. A(B   7,B   2,B   8)           77.54  0.021954   -2.34     75.20   
    37. A(B   3,B   2,B   8)           50.35 -0.013386    1.42     51.77   
    38. A(B   1,B   2,B   8)          119.52  0.008245   -1.04    118.48   
    39. A(B   1,B   2,B   3)          116.90  0.004831   -0.50    116.39   
    40. A(B   1,B   2,B   7)           55.90 -0.009331    0.85     56.75   
    41. A(B   8,B   3,B   9)           53.03 -0.007067    0.52     53.54   
    42. A(B   4,B   3,B   9)           55.75  0.000606    0.07     55.82   
    43. A(B   2,B   3,B   9)          114.19  0.002887   -0.49    113.70   
    44. A(B   2,B   3,B   4)          129.36 -0.005207    0.44    129.80   
    45. A(B   4,B   3,B   8)          107.45 -0.006084    0.53    107.97   
    46. A(B   2,B   3,B   8)           73.24  0.012410   -1.34     71.90   
    47. A(B   3,B   4,B   9)           61.22 -0.011926    1.00     62.22   
    48. A(B   9,B   4,B  10)           75.54  0.023742   -2.49     73.05   
    49. A(B   3,B   4,B   5)          114.05  0.004211   -0.34    113.71   
    50. A(B   5,B   4,B  10)           48.95 -0.010022    1.15     50.10   
    51. A(B   3,B   4,B  10)          121.41  0.006474   -0.70    120.71   
    52. A(B   5,B   4,B   9)          112.29  0.011764   -1.23    111.06   
    53. A(B   0,B   5,B   4)          118.08 -0.002586    0.29    118.37   
    54. A(B  10,B   5,B  11)           69.98  0.011805   -1.32     68.65   
    55. A(B   4,B   5,B  11)          120.09  0.008620   -0.91    119.18   
    56. A(B   0,B   5,B  11)           54.70 -0.008209    0.90     55.60   
    57. A(B   4,B   5,B  10)           65.06  0.003451   -0.38     64.67   
    58. A(B   0,B   5,B  10)          116.88  0.002870   -0.39    116.50   
[...]
      pz      :     0.754728  p :     2.218354
      px      :     0.649779
      py      :     0.813846
      dz2     :     0.014559  d :     0.056171
      dxz     :     0.010416
      dyz     :     0.011779
      dx2y2   :     0.010070
      dxy     :     0.009348

  9 B s       :     2.724516  s :     2.724516
      pz      :     0.753294  p :     2.217996
      px      :     0.679931
      py      :     0.784771
      dz2     :     0.014555  d :     0.056145
      dxz     :     0.010689
      dyz     :     0.011541
      dx2y2   :     0.010651
      dxy     :     0.008709

 10 B s       :     2.722996  s :     2.722996
      pz      :     0.754800  p :     2.220285
      px      :     0.868153
      py      :     0.597331
      dz2     :     0.014578  d :     0.056214
      dxz     :     0.012187
      dyz     :     0.010036
      dx2y2   :     0.008373
      dxy     :     0.011040

 11 B s       :     2.727936  s :     2.727936
      pz      :     0.756699  p :     2.217201
      px      :     0.645393
      py      :     0.815108
      dz2     :     0.014561  d :     0.056161
      dxz     :     0.010415
      dyz     :     0.011677
      dx2y2   :     0.010117
      dxy     :     0.009392



                     *******************************
                     * LOEWDIN POPULATION ANALYSIS *
                     *******************************

----------------------
LOEWDIN ATOMIC CHARGES
----------------------
   0 B :   -0.000974
   1 B :    0.001172
   2 B :   -0.001212
   3 B :    0.001268
   4 B :   -0.000325
   5 B :    0.000347
   6 B :   -0.000203
   7 B :    0.000003
   8 B :    0.000006
   9 B :   -0.000228
  10 B :   -0.000040
  11 B :    0.000185

-------------------------------
LOEWDIN REDUCED ORBITAL CHARGES
-------------------------------
  0 B s       :     2.674727  s :     2.674727
      pz      :     0.789699  p :     2.183310
      px      :     0.527800
      py      :     0.865812
      dz2     :     0.040622  d :     0.142937
      dxz     :     0.016733
      dyz     :     0.034115
      dx2y2   :     0.021234
      dxy     :     0.030233

  1 B s       :     2.675547  s :     2.675547
      pz      :     0.789214  p :     2.180250
      px      :     0.799942
      py      :     0.591095
      dz2     :     0.040561  d :     0.143032
      dxz     :     0.030839
      dyz     :     0.020089
      dx2y2   :     0.027004
      dxy     :     0.024540

  2 B s       :     2.674954  s :     2.674954
      pz      :     0.791168  p :     2.183458
      px      :     0.761115
      py      :     0.631174
      dz2     :     0.040577  d :     0.142799
      dxz     :     0.028724
      dyz     :     0.021995
      dx2y2   :     0.029048
      dxy     :     0.022456

  3 B s       :     2.675747  s :     2.675747
      pz      :     0.793103  p :     2.180073
      px      :     0.520751
      py      :     0.866219
      dz2     :     0.040510  d :     0.142912
      dxz     :     0.016627
      dyz     :     0.034082
      dx2y2   :     0.021321
      dxy     :     0.030373

  4 B s       :     2.675476  s :     2.675476
      pz      :     0.792972  p :     2.182216
      px      :     0.798789
      py      :     0.590455
      dz2     :     0.040494  d :     0.142633
      dxz     :     0.030569
      dyz     :     0.020030
      dx2y2   :     0.027031
      dxy     :     0.024509

  5 B s       :     2.675149  s :     2.675149
      pz      :     0.791929  p :     2.181384
      px      :     0.762556
      py      :     0.626899
      dz2     :     0.040585  d :     0.143120
      dxz     :     0.028843
      dyz     :     0.021986
      dx2y2   :     0.029100
      dxy     :     0.022606

  6 B s       :     2.675083  s :     2.675083
      pz      :     0.793934  p :     2.182212
      px      :     0.627223
      py      :     0.761056
      dz2     :     0.040550  d :     0.142907
      dxz     :     0.022003
      dyz     :     0.028656
      dx2y2   :     0.029145
      dxy     :     0.022553

  7 B s       :     2.675111  s :     2.675111
      pz      :     0.792724  p :     2.181885
      px      :     0.866193
      py      :     0.522968
      dz2     :     0.040564  d :     0.143002
      dxz     :     0.034075
      dyz     :     0.016680
      dx2y2   :     0.021314
      dxy     :     0.030368

  8 B s       :     2.675308  s :     2.675308
      pz      :     0.790072  p :     2.181725
      px      :     0.592883
      py      :     0.798770
      dz2     :     0.040554  d :     0.142961
      dxz     :     0.020057
      dyz     :     0.030794
      dx2y2   :     0.027037
      dxy     :     0.024519

  9 B s       :     2.675308  s :     2.675308
      pz      :     0.788377  p :     2.182019
      px      :     0.630775
      py      :     0.762867
      dz2     :     0.040531  d :     0.142901
      dxz     :     0.021985
      dyz     :     0.028890
      dx2y2   :     0.029021
      dxy     :     0.022474

 10 B s       :     2.675075  s :     2.675075
      pz      :     0.790061  p :     2.181924
      px      :     0.866097
      py      :     0.525766
      dz2     :     0.040595  d :     0.143041
      dxz     :     0.034183
      dyz     :     0.016697
      dx2y2   :     0.021288
      dxy     :     0.030278

 11 B s       :     2.675269  s :     2.675269
      pz      :     0.792612  p :     2.181643
      px      :     0.589192
      py      :     0.799838
      dz2     :     0.040561  d :     0.142902
      dxz     :     0.020096
      dyz     :     0.030636
      dx2y2   :     0.027025
      dxy     :     0.024584



                      *****************************
                      * MAYER POPULATION ANALYSIS *
                      *****************************

  NA   - Mulliken gross atomic population
  ZA   - Total nuclear charge
  QA   - Mulliken gross atomic charge
  VA   - Mayer's total valence
  BVA  - Mayer's bonded valence
  FA   - Mayer's free valence

  ATOM       NA         ZA         QA         VA         BVA        FA
  0 B      4.9929     5.0000     0.0071     4.2201     4.2201     0.0000
  1 B      5.0078     5.0000    -0.0078     4.2353     4.2353    -0.0000
  2 B      4.9928     5.0000     0.0072     4.2182     4.2182    -0.0000
  3 B      5.0067     5.0000    -0.0067     4.2343     4.2343    -0.0000
  4 B      4.9959     5.0000     0.0041     4.2191     4.2191    -0.0000
  5 B      5.0048     5.0000    -0.0048     4.2342     4.2342    -0.0000
  6 B      4.9997     5.0000     0.0003     4.2270     4.2270     0.0000
  7 B      4.9991     5.0000     0.0009     4.2271     4.2271     0.0000
  8 B      5.0009     5.0000    -0.0009     4.2280     4.2280     0.0000
  9 B      4.9987     5.0000     0.0013     4.2254     4.2254     0.0000
 10 B      4.9995     5.0000     0.0005     4.2280     4.2280     0.0000
 11 B      5.0013     5.0000    -0.0013     4.2275     4.2275     0.0000

  Mayer bond orders larger than 0.100000
B(  0-B ,  1-B ) :   1.0025 B(  0-B ,  2-B ) :   0.1735 B(  0-B ,  4-B ) :   0.1743 
B(  0-B ,  5-B ) :   1.0025 B(  0-B ,  6-B ) :   0.7540 B(  0-B ,  7-B ) :   0.1190 
B(  0-B , 10-B ) :   0.1195 B(  0-B , 11-B ) :   0.7553 B(  1-B ,  2-B ) :   1.0028 
B(  1-B ,  3-B ) :   0.1827 B(  1-B ,  5-B ) :   0.1823 B(  1-B ,  6-B ) :   0.7543 
B(  1-B ,  7-B ) :   0.7534 B(  1-B ,  8-B ) :   0.1196 B(  1-B , 11-B ) :   0.1199 
B(  2-B ,  3-B ) :   1.0031 B(  2-B ,  4-B ) :   0.1730 B(  2-B ,  6-B ) :   0.1193 
B(  2-B ,  7-B ) :   0.7544 B(  2-B ,  8-B ) :   0.7544 B(  2-B ,  9-B ) :   0.1190 
B(  3-B ,  4-B ) :   1.0026 B(  3-B ,  5-B ) :   0.1817 B(  3-B ,  7-B ) :   0.1196 
B(  3-B ,  8-B ) :   0.7539 B(  3-B ,  9-B ) :   0.7522 B(  3-B , 10-B ) :   0.1188 
B(  4-B ,  5-B ) :   1.0030 B(  4-B ,  8-B ) :   0.1190 B(  4-B ,  9-B ) :   0.7550 
B(  4-B , 10-B ) :   0.7553 B(  4-B , 11-B ) :   0.1199 B(  5-B ,  6-B ) :   0.1196 
B(  5-B ,  9-B ) :   0.1193 B(  5-B , 10-B ) :   0.7522 B(  5-B , 11-B ) :   0.7540 
B(  6-B ,  7-B ) :   1.0021 B(  6-B ,  8-B ) :   0.1782 B(  6-B , 10-B ) :   0.1778 
B(  6-B , 11-B ) :   1.0032 B(  7-B ,  8-B ) :   1.0032 B(  7-B ,  9-B ) :   0.1779 
B(  7-B , 11-B ) :   0.1779 B(  8-B ,  9-B ) :   1.0022 B(  8-B , 10-B ) :   0.1792 
B(  9-B , 10-B ) :   1.0037 B(  9-B , 11-B ) :   0.1777 B( 10-B , 11-B ) :   1.0019 


-------
TIMINGS
-------

Total SCF time: 0 days 0 hours 0 min 4 sec 

Total time                  ....       4.152 sec
Sum of individual times     ....       3.632 sec  ( 87.5%)

SCF preparation             ....       0.494 sec  ( 11.9%)
Fock matrix formation       ....       2.456 sec  ( 59.1%)
  Startup                   ....       0.009 sec  (  0.4% of F)
  Split-RI-J                ....       0.838 sec  ( 34.1% of F)
  XC integration            ....       1.817 sec  ( 74.0% of F)
    XC Preparation          ....       0.000 sec  (  0.0% of XC)
    Basis function eval.    ....       0.402 sec  ( 22.1% of XC)
    Density eval.           ....       0.311 sec  ( 17.1% of XC)
    XC-Functional eval.     ....       0.044 sec  (  2.4% of XC)
    XC-Potential eval.      ....       0.373 sec  ( 20.5% of XC)
Diagonalization             ....       0.000 sec  (  0.0%)
Density matrix formation    ....       0.037 sec  (  0.9%)
Total Energy calculation    ....       0.021 sec  (  0.5%)
Population analysis         ....       0.234 sec  (  5.6%)
Orbital Transformation      ....       0.063 sec  (  1.5%)
Orbital Orthonormalization  ....       0.000 sec  (  0.0%)
DIIS solution               ....       0.022 sec  (  0.5%)
SOSCF solution              ....       0.305 sec  (  7.4%)
Finished LeanSCF after   4.2 sec

Maximum memory used throughout the entire LEANSCF-calculation: 11.0 MB


-------------------------------------------------------------------------------
                          DFT DISPERSION CORRECTION                            
                                                                               
                              DFTD3 V3.1  Rev 1                                
                          USING Becke-Johnson damping                          
-------------------------------------------------------------------------------
The BP86 functional is recognized
Active option DFTDOPT                   ...         4   

molecular C6(AA) [au] = 4067.184425 


            DFT-D V3
 parameters
 s6 scaling factor         :     1.0000 
 a1 scaling factor         :     0.3946 
 s8 scaling factor         :     3.2822 
 a2 scaling factor         :     4.8516 
 ad hoc parameters k1-k3   :    16.0000     1.3333    -4.0000 

 Edisp/kcal,au: -22.783553981442  -0.036307900506 
 E6   /kcal   :  -6.461736452 
 E8   /kcal   : -16.321817530 
 % E8         :  71.638593096 

-------------------------   ----------------
Dispersion correction           -0.036307901
-------------------------   ----------------


-------------------------   --------------------
FINAL SINGLE POINT ENERGY      -297.694633740520
-------------------------   --------------------

                                *** OPTIMIZATION RUN DONE ***



           ************************************************************
           *        Program running with 8 parallel MPI-processes     *
           *              working on a common directory               *
           ************************************************************

------------------------------------------------------------------------------
                              ORCA PROPERTY CALCULATIONS
------------------------------------------------------------------------------

GBWName                                 ... hex_antiprism_nn1.70_perturb1.gbw
Number of atoms                         ...     12
Number of basis functions               ...    168
Max core memory                         ...   2500 MB

Electric properties:
Dipole moment                           ... YES
Quadrupole moment                       ...  NO
Static polarizability (Dipole/Dipole)   ...  NO
Static polarizability (Dipole/Quad.)    ...  NO
Static polarizability (Quad./Quad.)     ...  NO
Static polarizability (Velocity)        ...  NO
Static hyperpolarizability              ...  NO

Atomic electric properties:
Dipole moment                           ...  NO
Quadrupole moment                       ...  NO
Static polarizability                   ...  NO

Choice of electric origin               ... Center of mass
Position of electric origin             ...    -0.032320     0.026208     0.053300

General magnetic properties:
Magnetizability                         ...  NO

EPR properties:
g-Tensor (aka g-matrix)                 ...  NO
Zero-Field splitting spin-orbit         ...  NO
Zero-field splitting spin-spin          ...  NO
Hyperfine couplings                     ...  NO (   0 nuclei)
Quadrupole couplings                    ...  NO (   0 nuclei)
Contact density                         ...  NO (   0 nuclei)

NMR properties:
Chemical shifts                         ...  NO (   0 nuclei)
Spin-rotation constants                 ...  NO (   0 nuclei)
Spin-spin couplings                     ...  NO (   0 nuclei,    0 pairs)

Choice of magnetic origin               ... GIAO
Position of magnetic origin             ...     0.000000     0.000000     0.000000

Properties with geometric perturbations:
SCF Hessian                             ...  NO
IR spectrum                             ...  NO
VCD spectrum                            ...  NO
X-ray spectroscopy properties:
SCF XES/XAS/RIXS spectra                ...  NO

SCF SOC stabilization energy            ...  NO
Diagonal Born-Oppenheimer correction    ...  NO

-------------
DIPOLE MOMENT
-------------

Method             : SCF
Type of density    : Electron Density
Multiplicity       :   1
Irrep              :   0
Energy             :  -297.6583258400137879 Eh
Basis              : AO
                                X                 Y                 Z
Electronic contribution:     -0.000568427      -0.000157293      -0.000336442
Nuclear contribution   :      0.000000000       0.000000000       0.000000000
                        -----------------------------------------
Total Dipole Moment    :     -0.000568427      -0.000157293      -0.000336442
                        -----------------------------------------
Magnitude (a.u.)       :      0.000679002
Magnitude (Debye)      :      0.001725885



--------------------
Rotational spectrum 
--------------------
 
Rotational constants in cm-1:             0.068517             0.068510             0.048289 
Rotational constants in MHz :          2054.079413          2053.871358          1447.672985 

Dipole components along the rotational axes: 
x,y,z [a.u.] :     0.000285    -0.000520    -0.000330 
x,y,z [Debye]:     0.000725    -0.001322    -0.000839 

 

Dipole moment calculation done in   0.0 sec 

Maximum memory used throughout the entire PROP-calculation: 8.6 MB

--------------------------------
SUGGESTED CITATIONS FOR THIS RUN
--------------------------------

Below you find a list of papers that are relevant to this ORCA run
We neither can nor want to force you to cite these papers, but we appreciate if you do
You receive ORCA, which is the product of decades of hard work by many enthusiastic individuals, for free
The only thing we kindly ask in return is that you cite our papers,
We deeply appreciate it, if you show your appreciation for ORCA by not just citing the generic ORCA reference.

Please note that relegating all ORCA citations to the supporting information does *not* help us.
SI sections are not indexed - citations you put there will not count into any citation statistics
But we need these citations in order to attract the funding resources that allow us to do what we are doing

Therefore, if you are a happy ORCA user, please consider citing a few of the papers listed below in the main body of your paper

In addition to the list printed below, the program has created the file hex_antiprism_nn1.70_perturb1.bibtex that contains the list in bibtex format
You can import this file easily into all common literature databanks and citation aid programs

It goes without saying that in many instances, there are alternative algorithms to achieve similar
results as the ones you have gotten from ORCA. It is, of course, also the case that in some instances
ORCA just re-implements algorithms worked out by others. We are fully aware of that and we are also
fully appreciative of our colleagues work. Hence this citation list should not be read as indicating
that the listed papers, which are focused on our own work, are the only ones worth citing. It simply
meant to make it easier for users to cite ORCA specific papers. It is not a substitute for doing your
own literature research and citing the relevant literature in a scientifically appropriate manner.

List of essential papers. We consider these as the minimum necessary citations

  1. Neese, F.
     Software update: the ORCA program system, version 6.0
     WIRES Comput. Molec. Sci. 2025 15(1), e70019
     doi.org/10.1002/wcms.70019

List of papers to cite with high priority. The work reported in these papers was absolutely
necessary for this run to complete.
Our perspective: the developers of density functionals and basis sets usually get cited in chemistry papers
Good! But without the algorithms to do something with them, the functionals or basis sets would not do anything.
Hence, in our opinion, the algorithm design and method developments papers are equally worthy of getting cited

  1. Neese, F.
     An improvement of the resolution of the identity approximation for the formation of the Coulomb matrix
     J. Comp. Chem. 2003 24(14), 1740-1747
     doi.org/10.1002/jcc.10318
  2. Grimme, S.; Antony, J.; Ehrlich, S.; Krieg, H.
     A consistent and accurate ab initio parametrization of density functional dispersion correction (DFT-D) for the 94 elements H-Pu
     J. Chem. Phys. 2010 132 , 154104
     doi.org/10.1063/1.3382344
  3. Grimme, S.; Ehrlich, S.; Goerigk, L.
     Effect of the damping function in dispersion corrected density functional theory
     J. Comput. Chem. 2011 32(7), 1456-1465
     doi.org/10.1002/jcc.21759
  4. Neese, F.
     The SHARK Integral Generation and Digestion System
     J. Comp. Chem. 2022 44(3), 381
     doi.org/10.1002/jcc.26942

List of suggested additional citations. These are papers that are important in the 'surrounding' of 
of this run, or papers that preceded the highly important papers. If you like your results we are grateful for a citation.

  1. Neese, F.
     The ORCA program system
     WIRES Comput. Molec. Sci. 2012 2(1), 73-78
     doi.org/10.1002/wcms.81
  2. Neese, F.
     Software update: the ORCA program system, version 4.0
     WIRES Comput. Molec. Sci. 2018 8(1), 1-6
     doi.org/10.1002/wcms.1327
  3. Neese, F.; Wennmohs, F.; Becker, U.; Riplinger, C.
     The ORCA quantum chemistry program package
     J. Chem. Phys. 2020 152(22), 224108
     doi.org/10.1063/5.0004608
  4. Neese, F.
     Software update: The ORCA program system—Version 5.0
     WIRES Comput. Molec. Sci. 2022 12(1), e1606
     doi.org/10.1002/wcms.1606

List of optional additional citations

  1. Neese, F.
     Approximate second-order SCF convergence for spin unrestricted wavefunctions
     Chem. Phys. Lett. 2000 325(1-3), 93-98
     doi.org/10.1016/s0009-2614(00)00662-x

Timings for individual modules:

Sum of individual times          ...      193.248 sec (=   3.221 min)
Startup calculation              ...       29.200 sec (=   0.487 min)  15.1 %
SCF iterations                   ...      122.871 sec (=   2.048 min)  63.6 %
Property calculations            ...        0.823 sec (=   0.014 min)   0.4 %
SCF Gradient evaluation          ...       40.097 sec (=   0.668 min)  20.7 %
Geometry relaxation              ...        0.257 sec (=   0.004 min)   0.1 %
                             ****ORCA TERMINATED NORMALLY****
TOTAL RUN TIME: 0 days 0 hours 3 minutes 27 seconds 40 msec
