
                                 *****************
                                 * O   R   C   A *
                                 *****************

                                            #,                                       
                                            ###                                      
                                            ####                                     
                                            #####                                    
                                            ######                                   
                                           ########,                                 
                                     ,,################,,,,,                         
                               ,,#################################,,                 
                          ,,##########################################,,             
                       ,#########################################, ''#####,          
                    ,#############################################,,   '####,        
                  ,##################################################,,,,####,       
                ,###########''''           ''''###############################       
              ,#####''   ,,,,##########,,,,          '''####'''          '####       
            ,##' ,,,,###########################,,,                        '##       
           ' ,,###''''                  '''############,,,                           
         ,,##''                                '''############,,,,        ,,,,,,###''
      ,#''                                            '''#######################'''  
     '                                                          ''''####''''         
             ,#######,   #######,   ,#######,      ##                                
            ,#'     '#,  ##    ##  ,#'     '#,    #''#        ,####,    ,#,          
            ##       ##  ##   ,#'  ##            #'  '#       #'       ,# #          
            ##       ##  #######   ##           ,######,      #####,      #          
            '#,     ,#'  ##    ##  '#,     ,#' ,#      #,     #,   #      #          
             '#######'   ##     ##  '#######'  #'      '#     '####' #    #          



                #########################################################
                #                        -***-                          #
                #          Department of theory and spectroscopy        #
                #                                                       #
                #                      Frank Neese                      #
                #                                                       #
                #     Directorship, Architecture, Infrastructure        #
                #                    SHARK, DRIVERS                     #
                #        Core code/Algorithms in most modules           #
                #                                                       #
                #        Max Planck Institute fuer Kohlenforschung      #
                #                Kaiser Wilhelm Platz 1                 #
                #                 D-45470 Muelheim/Ruhr                 #
                #                      Germany                          #
                #                                                       #
                #                  All rights reserved                  #
                #                        -***-                          #
                #########################################################


                         Program Version 6.1.1  -  RELEASE   -
                                (GIT: $487d211c$)
                          ($2025-11-21 10:33:24 +0100$)
                                                                         
                                  - NO-DMRG VERSION -                    
                                                                         


 With contributions from (in alphabetic order):
[Max-Planck-Institut fuer Kohlenforschung]                               
  Daniel Aravena         : Magnetic Suceptibility                        
  Michael Atanasov       : Ab Initio Ligand Field Theory (pilot matlab implementation)
  Alexander A. Auer      : GIAO ZORA, VPT2 properties, NMR spectrum      
  Ute Becker             : All parallelization in ORCA, NUMFREQ, NUMCALC 
  Giovanni Bistoni       : ED, misc. LED, open-shell LED, HFLD           
  Dmytro Bykov           : pre 5.0 version of the SCF Hessian            
  Marcos Casanova-Páez   : Triplet and SCS-CIS(D). UHF-(DLPNO)-IP/EA/STEOM-CCSD. UHF-CVS-IP/STEOM-CCSD   
  Vijay G. Chilkuri      : MRCI spin determinant printing, contributions to CSF-ICE 
  Pauline Colinet        : FMM embedding                                 
  Dipayan Datta          : RHF DLPNO-CCSD density                        
  Achintya Kumar Dutta   : EOM-CC, STEOM-CC                              
  Nicolas Foglia         : Exact transition moments, OPA infrastructure, MCD improvements    
  Dmitry Ganyushin       : Spin-Orbit,Spin-Spin,Magnetic field MRCI      
  Miquel Garcia-Rates    : C-PCM and meta-GGA Hessian, CCSD/C-PCM, Gaussian charge scheme 
  Tiago L. C. Gouveia    : GS-ROHF, GS-ROCIS                             
  Yang Guo               : DLPNO-NEVPT2, F12-NEVPT2, CIM, IAO-localization        
  Andreas Hansen         : Spin unrestricted coupled pair/coupled cluster methods 
  Ingolf Harden          : AUTO-CI MPn and infrastructure                
  Benjamin Helmich-Paris : MC-RPA, TRAH-(SCF,CASSCF), AVAS, COSX integrals, SCF dyn. polar., MC-PDFT, srDFT 
  Lee Huntington         : MR-EOM, pCC                                   
  Robert Izsak           : Overlap fitted RIJCOSX, COSX-SCS-MP3, EOM     
  Riya Kayal             : Wick's Theorem for AUTO-CI, AUTO-CI UHF-CCSDT 
  Emily Kempfer          : AUTO-CI RHF CISDT and CCSDT, approximate NEVPT4
  Christian Kollmar      : KDIIS, OOCD, Brueckner-CCSD(T), CCSD density, CASPT2, CASPT2-K, improved NEVPT2 
  Axel Koslowski         : Symmetry handling                             
  Simone Kossmann        : meta-GGA functionals, TD-DFT gradient, OOMP2, (MP2 Hessian; deprecated post 5.0) 
  Lucas Lang             : DCDCAS, Hyperfine gauge corrections, ICE-SOC+SSC
  Marvin Lechner         : AUTO-CI (C++ implementation), FIC-MRCC        
  Spencer Leger          : CASSCF response                               
  Dagmar Lenk            : GEPOL surface, SMD, ORCA-2-JSON               
  Dimitrios Liakos       : Extrapolation schemes; Compound Job, Property file
  Dimitrios Manganas     : Further ROCIS development; embedding schemes. LFT, Crystal Embedding 
  Dimitrios Pantazis     : SARC Basis sets                               
  Anastasios Papadopoulos: AUTO-CI, single reference methods and gradients 
  Taras Petrenko         : pre 6.0 DFT Hessian and TD-DFT gradient,  ECA, NRVS 
  Petra Pikulova         : Analytic Raman intensities                    
  Peter Pinski           : DLPNO-MP2, DLPNO-MP2 Gradient                 
  Shashank Vittal Rao    : ES-AILFT, MagRelax                            
  Christoph Reimann      : Effective Core Potentials                     
  Marius Retegan         : Local ZFS, SOC                                
  Christoph Riplinger    : Optimizer, TS searches, QM/MM, DLPNO-CCSD(T), (RO)-DLPNO pert. Triples 
  Michael Roemelt        : Original ROCIS implementation, recursive CI coupling coefficients
  Masaaki Saitow         : Open-shell DLPNO-CCSD energy and density      
  Barbara Sandhoefer     : DKH picture change effects                    
  Yorick L. A. Schmerwitz: GMF and freeze-and-release deltaSCF, NEB S-IDPP initial path                    
  Kantharuban Sivalingam : CASSCF convergence/infrastructure, NEVPT2, NEVPT3, NEVPT4(SD), FIC-MRCI and CEPA variants
  Bernardo de Souza      : ESD, SOC TD-DFT                               
  Georgi L. Stoychev     : AutoAux, RI-MP2 NMR, DLPNO-MP2 response, X2C  
  Van Anh Tran           : RI-MP2 g-tensors                              
  Willem Van den Heuvel  : Paramagnetic NMR                              
  Zikuan Wang            : NOTCH, Electric field optimization            
  Frank Wennmohs         : Technical directorship and infrastructure     
  Hang Xu                : AUTO-CI-Response properties                   
                                                                         
[FACCTs GmbH]                                                            
  Markus Bursch, Nicolas Foglia, Miquel Garcia-Rates, Ingolf Harden, Hagen Neugebauer, Anastasios Papadopoulos, 
  Christoph Riplinger, Bernardo de Souza, Georgi L. Stoychev                                                    
                                                                 
  APM, various basis sets, CI-OPT, improved COSX, DLPNO-Multilevel,           
  DOCKER, DRACO, updates on ESD, Fragmentator, GOAT, IRC, LR-CPCM, L-BFGS, MBIS, meta-GGA TD-DFT gradient, ML-optimized integration grids, 
  MM, NACMEs, nearIR, NEB, NEB-TS, NL-DFT gradient (VV10), 2- and 3-layer-ONIOM, interface openCOSMO-RS, QMMM,   
  Crystal-QMMM, RESP, rigid body optimization, SF, symmetry and pop. for TD-DFT, various functionals, SOLVATOR                                   
                                                                         
[Other institutions]                                                     
  V. Asgeirsson          : NEB                                           
  Christoph Bannwarth    : sTDA-DFT, sTD-DFT, PBEh-3c, B97-3c, D3        
  Giovanni Bistoni       : ETS/NOCV, ADLD/ADEX, COVALED                  
  Martin Brehm           : Molecular dynamics                            
  Ronald Cardenas        : ETS/NOCV                                      
  Martina Colucci        : COVALED                                       
  Sebastian Ehlert       : rSCAN, r2SCAN, r2SCAN-3c, D4, dhf basis sets  
  Marvin Friede          : D4 for Fr, Ra, Ac-Lr                          
  Lars Goerigk           : TD-DFT with DH, B97 family of functionals     
  Stefan Grimme          : VdW corrections, initial TS optimization, DFT functionals, gCP, sTDA/sTD-DF 
  Waldemar Hujo          : DFT-NL                                        
  H. Jonsson             : NEB                                           
  Holger Kruse           : gCP                                           
  Marcel Mueller         : wB97X-3c, vDZP basis set                      
  Hagen Neugebauer       : wr2SCAN, Native XTB                           
  Gianluca Regni         : ADLD/ADEX                                     
  Tobias Risthaus        : pre 6.0 range-separated hybrid DFT and stability analysis
  Lukas Wittmann         : regularized MP2, r2SCAN double-hybrids, wr2SCAN        
                                                                         
We gratefully acknowledge several colleagues who have allowed us to      
interface, adapt or use parts of their codes:                            
  Ed Valeev, F. Pavosevic, A. Kumar             : LibInt (2-el integral package), F12 methods 
  Garnet Chan, S. Sharma, J. Yang, R. Olivares  : DMRG                   
  Ulf Ekstrom                                   : XCFun DFT Library      
  Mihaly Kallay                                 : mrcc  (arbitrary order and MRCC methods)
  Frank Weinhold                                : gennbo (NPA and NBO analysis)           
  Simon Mueller                                 : openCOSMO-RS                            
  Christopher J. Cramer and Donald G. Truhlar   : smd solvation model                     
  S Lehtola, MJT Oliveira, MAL Marques          : LibXC Library                           
  Liviu Ungur et al                             : ANISO software                          


 Your calculation uses the libint2 library for the computation of 2-el integrals
 For citations please refer to: http://libint.valeyev.net

 Your ORCA version has been built with support for libXC version: 7.0.0
 For citations please refer to: https://libxc.gitlab.io

 This ORCA versions uses:
   CBLAS   interface :  Fast vector & matrix operations
   LAPACKE interface :  Fast linear algebra routines
   SCALAPACK package :  Parallel linear algebra routines
   Shared memory     :  Shared parallel matrices
   BLAS/LAPACK       :  OpenBLAS 0.3.29  USE64BITINT DYNAMIC_ARCH NO_AFFINITY Zen SINGLE_THREADED
        Core in use  :  Zen
   Copyright (c) 2011-2014, The OpenBLAS Project


  ***********************************
  * Starting time: Thu Apr 23 16:10:52 2026
  * Host name:     vmi3233575
  * Process ID:    1328638
  * Working dir.:  /root/b12_scan/jobs/hex_prism_nn1.80
  ***********************************

NOTE: MaxCore=2500 MB was set to SCF,MP2,MDCI,CIPSI,MRCI,RASCI and CIS
      => If you want to overwrite this, your respective input block should be placed after the MaxCore statement
Your calculation utilizes the atom-pairwise dispersion correction
with the Becke-Johnson damping scheme (D3BJ)


================================================================================

----- Orbital basis set information -----
Your calculation utilizes the basis: def2-SVP
   F. Weigend and R. Ahlrichs, Phys. Chem. Chem. Phys. 7, 3297 (2005).

----- AuxJ basis set information -----
Your calculation utilizes the auxiliary basis: def2/J
   H-Rn: F. Weigend, Phys. Chem. Chem. Phys. 8, 1057 (2006).
   Fr-Lr: K. Eichkorn, F. Weigend, O. Treutler, R. Ahlrichs; Theor. Chem. Acc. 97, 119 (1997).

================================================================================
                                        WARNINGS
                       Please study these warnings very carefully!
================================================================================


WARNING: Geometry Optimization
  ===> : Switching off AutoStart
         For restart on a previous wavefunction, please use MOREAD

================================================================================
                                       INPUT FILE
================================================================================
NAME = hex_prism_nn1.80.inp
|  1> ! BP86 def2-SVP def2/J RI Opt TightSCF D3BJ
|  2> ! SlowConv
|  3> 
|  4> %pal nprocs 8 end
|  5> %maxcore 2500
|  6> 
|  7> %geom
|  8>   MaxIter 300
|  9> end
| 10> 
| 11> * xyz 0 1
| 12> B      2.25000000     -0.00000000      0.90000000
| 13> B      2.25000000     -0.00000000     -0.90000000
| 14> B      1.12500000      1.94855716      0.90000000
| 15> B      1.12500000      1.94855716     -0.90000000
| 16> B     -1.12500000      1.94855716      0.90000000
| 17> B     -1.12500000      1.94855716     -0.90000000
| 18> B     -2.25000000      0.00000000      0.90000000
| 19> B     -2.25000000      0.00000000     -0.90000000
| 20> B     -1.12500000     -1.94855716      0.90000000
| 21> B     -1.12500000     -1.94855716     -0.90000000
| 22> B      1.12500000     -1.94855716      0.90000000
| 23> B      1.12500000     -1.94855716     -0.90000000
| 24> *
| 25> 
| 26>                          ****END OF INPUT****
================================================================================

                       *****************************
                       * Geometry Optimization Run *
                       *****************************

Geometry optimization settings:
Update method            Update   .... BFGS
Choice of coordinates    CoordSys .... (2022) Redundant Internals
Initial Hessian          InHess   .... Almloef's Model
Max. no of cycles        MaxIter  .... 300

Convergence Tolerances:
Energy Change            TolE     ....  5.0000e-06 Eh
Max. Gradient            TolMAXG  ....  3.0000e-04 Eh/bohr
RMS Gradient             TolRMSG  ....  1.0000e-04 Eh/bohr
Max. Displacement        TolMAXD  ....  4.0000e-03 bohr
RMS Displacement         TolRMSD  ....  2.0000e-03 bohr
Strict Convergence                .... False

------------------------------------------------------------------------------
                        ORCA OPTIMIZATION COORDINATE SETUP
------------------------------------------------------------------------------

The optimization will be done in redundant internal coordinates (2022)
Making redundant internal coordinates   ...  (2022 redundants) done
Evaluating the initial hessian          ...  (Almloef) done
Evaluating the coordinates              ...  done
Calculating the B-matrix                .... done
Calculating the G-matrix                .... done
The number of degrees of freedom        ....  390

    -----------------------------------------------------------------
                    Redundant Internal Coordinates


    -----------------------------------------------------------------
         Definition                    Initial Value    Approx d2E/dq
    -----------------------------------------------------------------
      1. B(B   1,B   0)                  1.8000         0.185885   
      2. B(B   2,B   0)                  2.2500         0.035588   
      3. B(B   2,B   1)                  2.8814         0.010000   
      4. B(B   3,B   2)                  1.8000         0.185885   
      5. B(B   3,B   0)                  2.8814         0.010000   
      6. B(B   3,B   1)                  2.2500         0.035588   
      7. B(B   4,B   2)                  2.2500         0.035588   
      8. B(B   4,B   3)                  2.8814         0.010000   
      9. B(B   5,B   3)                  2.2500         0.035588   
     10. B(B   5,B   4)                  1.8000         0.185885   
     11. B(B   5,B   2)                  2.8814         0.010000   
     12. B(B   6,B   4)                  2.2500         0.035588   
     13. B(B   6,B   5)                  2.8814         0.010000   
     14. B(B   7,B   4)                  2.8814         0.010000   
     15. B(B   7,B   5)                  2.2500         0.035588   
     16. B(B   7,B   6)                  1.8000         0.185885   
     17. B(B   8,B   7)                  2.8814         0.010000   
     18. B(B   8,B   6)                  2.2500         0.035588   
     19. B(B   9,B   6)                  2.8814         0.010000   
     20. B(B   9,B   7)                  2.2500         0.035588   
     21. B(B   9,B   8)                  1.8000         0.185885   
     22. B(B  10,B   0)                  2.2500         0.035588   
     23. B(B  10,B   9)                  2.8814         0.010000   
     24. B(B  10,B   8)                  2.2500         0.035588   
     25. B(B  10,B   1)                  2.8814         0.010000   
     26. B(B  11,B  10)                  1.8000         0.185885   
     27. B(B  11,B   8)                  2.8814         0.010000   
     28. B(B  11,B   9)                  2.2500         0.035588   
     29. B(B  11,B   0)                  2.8814         0.010000   
     30. B(B  11,B   1)                  2.2500         0.035588   
     31. A(B   2,B   0,B  11)          112.9815         0.147420   
     32. A(B   2,B   0,B   3)           38.6598         0.147420   
     33. A(B   1,B   0,B   3)           51.3402         0.173930   
     34. A(B   3,B   0,B  11)           85.1029         0.123559   
     35. A(B   1,B   0,B  10)           90.0000         0.232570   
     36. A(B   2,B   0,B  10)          120.0000         0.187756   
     37. A(B  10,B   0,B  11)           38.6598         0.147420   
     38. A(B   1,B   0,B   2)           90.0000         0.232570   
     39. A(B   3,B   0,B  10)          112.9815         0.147420   
     40. A(B   1,B   0,B  11)           51.3402         0.173930   
     41. A(B   3,B   1,B  10)          112.9815         0.147420   
     42. A(B   0,B   1,B  10)           51.3402         0.173930   
     43. A(B   2,B   1,B  10)           85.1029         0.123559   
     44. A(B   2,B   1,B  11)          112.9815         0.147420   
     45. A(B   0,B   1,B   3)           90.0000         0.232570   
     46. A(B   3,B   1,B  11)          120.0000         0.187756   
     47. A(B  10,B   1,B  11)           38.6598         0.147420   
     48. A(B   0,B   1,B  11)           90.0000         0.232570   
     49. A(B   0,B   1,B   2)           51.3402         0.173930   
     50. A(B   2,B   1,B   3)           38.6598         0.147420   
     51. A(B   4,B   2,B   5)           38.6598         0.147420   
     52. A(B   1,B   2,B   3)           51.3402         0.173930   
     53. A(B   3,B   2,B   4)           90.0000         0.232570   
     54. A(B   0,B   2,B   5)          112.9815         0.147420   
     55. A(B   1,B   2,B   4)          112.9815         0.147420   
     56. A(B   0,B   2,B   4)          120.0000         0.187756   
     57. A(B   0,B   2,B   1)           38.6598         0.147420   
     58. A(B   1,B   2,B   5)           85.1029         0.123559   
     59. A(B   0,B   2,B   3)           90.0000         0.232570   
     60. A(B   3,B   2,B   5)           51.3402         0.173930   
     61. A(B   1,B   3,B   4)          112.9815         0.147420   
     62. A(B   4,B   3,B   5)           38.6598         0.147420   
     63. A(B   0,B   3,B   4)           85.1029         0.123559   
     64. A(B   1,B   3,B   5)          120.0000         0.187756   
     65. A(B   0,B   3,B   2)           51.3402         0.173930   
     66. A(B   0,B   3,B   5)          112.9815         0.147420   
     67. A(B   0,B   3,B   1)           38.6598         0.147420   
     68. A(B   2,B   3,B   4)           51.3402         0.173930   
     69. A(B   2,B   3,B   5)           90.0000         0.232570   
     70. A(B   1,B   3,B   2)           90.0000         0.232570   
     71. A(B   2,B   4,B   7)          112.9815         0.147420   
     72. A(B   6,B   4,B   7)           38.6598         0.147420   
     73. A(B   3,B   4,B   7)           85.1029         0.123559   
     74. A(B   5,B   4,B   7)           51.3402         0.173930   
     75. A(B   2,B   4,B   3)           38.6598         0.147420   
     76. A(B   3,B   4,B   5)           51.3402         0.173930   
     77. A(B   3,B   4,B   6)          112.9815         0.147420   
     78. A(B   2,B   4,B   6)          120.0000         0.187756   
     79. A(B   5,B   4,B   6)           90.0000         0.232570   
     80. A(B   2,B   4,B   5)           90.0000         0.232570   
     81. A(B   2,B   5,B   6)           85.1029         0.123559   
     82. A(B   2,B   5,B   4)           51.3402         0.173930   
     83. A(B   3,B   5,B   6)          112.9815         0.147420   
     84. A(B   2,B   5,B   7)          112.9815         0.147420   
     85. A(B   3,B   5,B   7)          120.0000         0.187756   
     86. A(B   4,B   5,B   7)           90.0000         0.232570   
     87. A(B   4,B   5,B   6)           51.3402         0.173930   
     88. A(B   3,B   5,B   4)           90.0000         0.232570   
     89. A(B   6,B   5,B   7)           38.6598         0.147420   
     90. A(B   2,B   5,B   3)           38.6598         0.147420   
     91. A(B   5,B   6,B   9)           85.1029         0.123559   
     92. A(B   5,B   6,B   8)          112.9815         0.147420   
     93. A(B   4,B   6,B   5)           38.6598         0.147420   
     94. A(B   5,B   6,B   7)           51.3402         0.173930   
     95. A(B   8,B   6,B   9)           38.6598         0.147420   
     96. A(B   4,B   6,B   9)          112.9815         0.147420   
     97. A(B   7,B   6,B   9)           51.3402         0.173930   
     98. A(B   4,B   6,B   8)          120.0000         0.187756   
     99. A(B   7,B   6,B   8)           90.0000         0.232570   
    100. A(B   4,B   6,B   7)           90.0000         0.232570   
    101. A(B   4,B   7,B   8)           85.1029         0.123559   
    102. A(B   4,B   7,B   5)           38.6598         0.147420   
    103. A(B   4,B   7,B   9)          112.9815         0.147420   
    104. A(B   4,B   7,B   6)           51.3402         0.173930   
    105. A(B   5,B   7,B   8)          112.9815         0.147420   
    106. A(B   8,B   7,B   9)           38.6598         0.147420   
    107. A(B   6,B   7,B   8)           51.3402         0.173930   
    108. A(B   5,B   7,B   9)          120.0000         0.187756   
    109. A(B   5,B   7,B   6)           90.0000         0.232570   
    110. A(B   6,B   7,B   9)           90.0000         0.232570   
    111. A(B   9,B   8,B  11)           51.3402         0.173930   
    112. A(B   9,B   8,B  10)           90.0000         0.232570   
    113. A(B   6,B   8,B   7)           38.6598         0.147420   
    114. A(B   7,B   8,B  11)           85.1029         0.123559   
    115. A(B   7,B   8,B  10)          112.9815         0.147420   
    116. A(B   7,B   8,B   9)           51.3402         0.173930   
    117. A(B   6,B   8,B  11)          112.9815         0.147420   
    118. A(B   6,B   8,B  10)          120.0000         0.187756   
    119. A(B   6,B   8,B   9)           90.0000         0.232570   
    120. A(B  10,B   8,B  11)           38.6598         0.147420   
    121. A(B   8,B   9,B  11)           90.0000         0.232570   
    122. A(B   6,B   9,B   7)           38.6598         0.147420   
    123. A(B   6,B   9,B  10)           85.1029         0.123559   
    124. A(B   6,B   9,B  11)          112.9815         0.147420   
    125. A(B   6,B   9,B   8)           51.3402         0.173930   
    126. A(B   7,B   9,B  10)          112.9815         0.147420   
    127. A(B   7,B   9,B  11)          120.0000         0.187756   
    128. A(B   7,B   9,B   8)           90.0000         0.232570   
    129. A(B  10,B   9,B  11)           38.6598         0.147420   
    130. A(B   8,B   9,B  10)           51.3402         0.173930   
    131. A(B   1,B  10,B   8)          112.9815         0.147420   
    132. A(B   0,B  10,B   8)          120.0000         0.187756   
    133. A(B   8,B  10,B  11)           90.0000         0.232570   
    134. A(B   0,B  10,B   1)           38.6598         0.147420   
    135. A(B   1,B  10,B  11)           51.3402         0.173930   
    136. A(B   8,B  10,B   9)           38.6598         0.147420   
    137. A(B   1,B  10,B   9)           85.1029         0.123559   
    138. A(B   0,B  10,B   9)          112.9815         0.147420   
    139. A(B   9,B  10,B  11)           51.3402         0.173930   
    140. A(B   0,B  10,B  11)           90.0000         0.232570   
    141. A(B   1,B  11,B   8)          112.9815         0.147420   
    142. A(B   8,B  11,B  10)           51.3402         0.173930   
    143. A(B   0,B  11,B   9)          112.9815         0.147420   
    144. A(B   1,B  11,B   9)          120.0000         0.187756   
    145. A(B   9,B  11,B  10)           90.0000         0.232570   
    146. A(B   0,B  11,B   1)           38.6598         0.147420   
    147. A(B   0,B  11,B  10)           51.3402         0.173930   
    148. A(B   1,B  11,B  10)           90.0000         0.232570   
    149. A(B   8,B  11,B   9)           38.6598         0.147420   
    150. A(B   0,B  11,B   8)           85.1029         0.123559   
    151. D(B   3,B   1,B   0,B  11)    120.0000         0.010000   
    152. D(B   2,B   1,B   0,B  11)    120.0000         0.010000   
    153. D(B   2,B   1,B   0,B  10)    120.0000         0.010000   
    154. D(B   3,B   1,B   0,B   2)     -0.0000         0.010000   
    155. D(B  11,B   1,B   0,B   2)   -120.0000         0.010000   
    156. D(B  11,B   1,B   0,B   3)   -120.0000         0.010000   
    157. D(B   3,B   1,B   0,B  10)    120.0000         0.010000   
    158. D(B   2,B   1,B   0,B   3)      0.0000         0.010000   
    159. D(B   4,B   2,B   1,B   3)     70.1673         0.010000   
    160. D(B   4,B   2,B   1,B   0)   -109.8327         0.010000   
    161. D(B   0,B   2,B   1,B  10)     42.7445         0.010000   
    162. D(B   0,B   2,B   1,B  11)     70.1673         0.010000   
    163. D(B   1,B   2,B   0,B  10)    -90.0000         0.010000   
    164. D(B   1,B   2,B   0,B  11)    -47.2695         0.010000   
    165. D(B   4,B   2,B   0,B   3)     90.0000         0.010000   
    166. D(B   3,B   2,B   1,B   0)    180.0000         0.010000   
    167. D(B   3,B   2,B   0,B  11)    -47.2695         0.010000   
    168. D(B   1,B   2,B   0,B   3)      0.0000         0.010000   
    169. D(B   0,B   2,B   1,B   3)   -180.0000         0.010000   
    170. D(B   3,B   2,B   0,B   1)      0.0000         0.010000   
    171. D(B   3,B   2,B   1,B  10)   -137.2555         0.010000   
    172. D(B   3,B   2,B   1,B  11)   -109.8327         0.010000   
    173. D(B   3,B   2,B   0,B  10)    -90.0000         0.010000   
    174. D(B   4,B   2,B   0,B   1)     90.0000         0.010000   
    175. D(B   1,B   3,B   0,B  10)    -70.1673         0.010000   
    176. D(B   2,B   3,B   0,B  10)    109.8327         0.010000   
    177. D(B   5,B   3,B   0,B   1)    109.8327         0.010000   
    178. D(B   1,B   3,B   0,B  11)    -42.7445         0.010000   
    179. D(B   2,B   3,B   0,B   1)    180.0000         0.010000   
    180. D(B   0,B   3,B   2,B   1)      0.0000         0.010000   
    181. D(B   2,B   3,B   0,B  11)    137.2555         0.010000   
    182. D(B   0,B   3,B   2,B   5)   -120.0000         0.010000   
    183. D(B   5,B   3,B   2,B   0)    120.0000         0.010000   
    184. D(B   1,B   3,B   2,B   5)   -120.0000         0.010000   
    185. D(B   0,B   3,B   1,B  10)     47.2695         0.010000   
    186. D(B   1,B   3,B   2,B   4)   -120.0000         0.010000   
    187. D(B   2,B   3,B   1,B  10)     47.2695         0.010000   
    188. D(B   5,B   3,B   1,B   0)    -90.0000         0.010000   
    189. D(B   1,B   3,B   2,B   0)     -0.0000         0.010000   
    190. D(B   5,B   3,B   1,B   2)    -90.0000         0.010000   
    191. D(B   2,B   3,B   1,B  11)     90.0000         0.010000   
    192. D(B   0,B   3,B   1,B  11)     90.0000         0.010000   
    193. D(B   0,B   3,B   1,B   2)      0.0000         0.010000   
    194. D(B   1,B   3,B   0,B   2)    180.0000         0.010000   
    195. D(B   0,B   3,B   2,B   4)   -120.0000         0.010000   
    196. D(B   2,B   3,B   1,B   0)      0.0000         0.010000   
    197. D(B   5,B   3,B   0,B   2)    -70.1673         0.010000   
    198. D(B   5,B   3,B   2,B   1)    120.0000         0.010000   
    199. D(B   6,B   4,B   2,B   0)      0.0000         0.010000   
    200. D(B   2,B   4,B   3,B   1)     70.1673         0.010000   
    201. D(B   5,B   4,B   3,B   2)    180.0000         0.010000   
    202. D(B   3,B   4,B   2,B   1)    -47.2695         0.010000   
    203. D(B   5,B   4,B   2,B   1)    -47.2695         0.010000   
    204. D(B   6,B   4,B   2,B   3)     90.0000         0.010000   
    205. D(B   3,B   4,B   2,B   5)      0.0000         0.010000   
    206. D(B   2,B   4,B   3,B   0)     42.7445         0.010000   
    207. D(B   6,B   4,B   3,B   2)   -109.8327         0.010000   
    208. D(B   3,B   4,B   2,B   0)    -90.0000         0.010000   
    209. D(B   2,B   4,B   3,B   5)    180.0000         0.010000   
    210. D(B   5,B   4,B   3,B   0)   -137.2555         0.010000   
    211. D(B   5,B   4,B   2,B   0)    -90.0000         0.010000   
    212. D(B   5,B   4,B   3,B   1)   -109.8327         0.010000   
    213. D(B   5,B   4,B   2,B   3)      0.0000         0.010000   
    214. D(B   6,B   4,B   3,B   1)    -39.6655         0.010000   
    215. D(B   7,B   5,B   4,B   3)    120.0000         0.010000   
    216. D(B   2,B   5,B   4,B   7)   -120.0000         0.010000   
    217. D(B   2,B   5,B   4,B   6)   -120.0000         0.010000   
    218. D(B   2,B   5,B   4,B   3)      0.0000         0.010000   
    219. D(B   7,B   5,B   3,B   1)      0.0000         0.010000   
    220. D(B   2,B   5,B   3,B   4)      0.0000         0.010000   
    221. D(B   2,B   5,B   3,B   1)     90.0000         0.010000   
    222. D(B   3,B   5,B   4,B   2)      0.0000         0.010000   
    223. D(B   4,B   5,B   3,B   0)     47.2695         0.010000   
    224. D(B   4,B   5,B   3,B   1)     90.0000         0.010000   
    225. D(B   3,B   5,B   4,B   7)   -120.0000         0.010000   
    226. D(B   2,B   5,B   3,B   0)     47.2695         0.010000   
    227. D(B   4,B   5,B   3,B   2)      0.0000         0.010000   
    228. D(B   7,B   5,B   3,B   2)    -90.0000         0.010000   
    229. D(B   7,B   5,B   2,B   0)     39.6655         0.010000   
    230. D(B   3,B   5,B   2,B   4)    180.0000         0.010000   
    231. D(B   3,B   5,B   2,B   0)    -70.1673         0.010000   
    232. D(B   3,B   5,B   2,B   1)    -42.7445         0.010000   
    233. D(B   4,B   5,B   2,B   1)    137.2555         0.010000   
    234. D(B   4,B   5,B   2,B   0)    109.8327         0.010000   
    235. D(B   7,B   5,B   2,B   3)    109.8327         0.010000   
    236. D(B   7,B   5,B   4,B   2)    120.0000         0.010000   
    237. D(B   4,B   5,B   2,B   3)    180.0000         0.010000   
    238. D(B   3,B   5,B   4,B   6)   -120.0000         0.010000   
    239. D(B   8,B   6,B   5,B   3)    -39.6655         0.010000   
    240. D(B   4,B   6,B   5,B   7)    180.0000         0.010000   
    241. D(B   4,B   6,B   5,B   2)     42.7445         0.010000   
    242. D(B   4,B   6,B   5,B   3)     70.1673         0.010000   
    243. D(B   7,B   6,B   5,B   4)    180.0000         0.010000   
    244. D(B   9,B   6,B   4,B   5)     47.2695         0.010000   
    245. D(B   7,B   6,B   4,B   3)    -47.2695         0.010000   
    246. D(B   8,B   6,B   4,B   2)      0.0000         0.010000   
    247. D(B   8,B   6,B   4,B   5)     90.0000         0.010000   
    248. D(B   8,B   6,B   4,B   7)     90.0000         0.010000   
    249. D(B   7,B   6,B   4,B   2)    -90.0000         0.010000   
    250. D(B   7,B   6,B   4,B   5)      0.0000         0.010000   
    251. D(B   8,B   6,B   4,B   3)     42.7305         0.010000   
    252. D(B   8,B   6,B   5,B   4)   -109.8327         0.010000   
    253. D(B   7,B   6,B   5,B   2)   -137.2555         0.010000   
    254. D(B   7,B   6,B   5,B   3)   -109.8327         0.010000   
    255. D(B   5,B   7,B   6,B   9)   -120.0000         0.010000   
    256. D(B   5,B   7,B   6,B   8)   -120.0000         0.010000   
    257. D(B   5,B   7,B   6,B   4)      0.0000         0.010000   
    258. D(B   9,B   7,B   6,B   8)     -0.0000         0.010000   
    259. D(B   9,B   7,B   6,B   4)    120.0000         0.010000   
    260. D(B   8,B   7,B   5,B   4)    -47.2695         0.010000   
    261. D(B   9,B   7,B   5,B   4)    -90.0000         0.010000   
    262. D(B   6,B   7,B   5,B   2)     47.2695         0.010000   
    263. D(B   6,B   7,B   5,B   4)      0.0000         0.010000   
    264. D(B   5,B   7,B   4,B   2)    -70.1673         0.010000   
    265. D(B   9,B   7,B   4,B   6)    -70.1673         0.010000   
    266. D(B   9,B   7,B   4,B   3)     67.0883         0.010000   
    267. D(B   9,B   7,B   4,B   2)     39.6655         0.010000   
    268. D(B   9,B   7,B   4,B   5)    109.8327         0.010000   
    269. D(B   6,B   7,B   4,B   3)    137.2555         0.010000   
    270. D(B   6,B   7,B   4,B   2)    109.8327         0.010000   
    271. D(B   6,B   7,B   5,B   3)     90.0000         0.010000   
    272. D(B   9,B   7,B   6,B   5)    120.0000         0.010000   
    273. D(B   6,B   7,B   4,B   5)    180.0000         0.010000   
    274. D(B   9,B   7,B   5,B   3)      0.0000         0.010000   
    275. D(B   9,B   7,B   5,B   6)    -90.0000         0.010000   
    276. D(B   8,B   7,B   6,B   4)    120.0000         0.010000   
    277. D(B   9,B   7,B   5,B   2)    -42.7305         0.010000   
    278. D(B   8,B   7,B   6,B   9)      0.0000         0.010000   
    279. D(B  11,B   8,B   7,B   6)   -137.2555         0.010000   
    280. D(B  10,B   8,B   7,B   5)    -39.6655         0.010000   
    281. D(B  10,B   8,B   7,B   9)     70.1673         0.010000   
    282. D(B  10,B   8,B   7,B   6)   -109.8327         0.010000   
    283. D(B   9,B   8,B   7,B   4)   -137.2555         0.010000   
    284. D(B   9,B   8,B   7,B   5)   -109.8327         0.010000   
    285. D(B   9,B   8,B   7,B   6)    180.0000         0.010000   
    286. D(B  11,B   8,B   6,B   7)     47.2695         0.010000   
    287. D(B  10,B   8,B   6,B   5)     42.7305         0.010000   
    288. D(B  10,B   8,B   6,B   9)     90.0000         0.010000   
    289. D(B  10,B   8,B   6,B   4)      0.0000         0.010000   
    290. D(B  10,B   8,B   6,B   7)     90.0000         0.010000   
    291. D(B   9,B   8,B   6,B   5)    -47.2695         0.010000   
    292. D(B  10,B   8,B   7,B   4)    -67.0883         0.010000   
    293. D(B   9,B   8,B   6,B   4)    -90.0000         0.010000   
    294. D(B   9,B   8,B   6,B   7)      0.0000         0.010000   
    295. D(B   7,B   9,B   8,B  11)   -120.0000         0.010000   
    296. D(B  10,B   9,B   8,B   7)    120.0000         0.010000   
    297. D(B  10,B   9,B   8,B   6)    120.0000         0.010000   
    298. D(B  10,B   9,B   8,B  11)      0.0000         0.010000   
    299. D(B  11,B   9,B   8,B   7)    120.0000         0.010000   
    300. D(B  11,B   9,B   8,B   6)    120.0000         0.010000   
    301. D(B  11,B   9,B   8,B  10)      0.0000         0.010000   
    302. D(B  10,B   9,B   7,B   6)    -47.2695         0.010000   
    303. D(B  11,B   9,B   7,B   4)    -42.7305         0.010000   
    304. D(B  11,B   9,B   7,B   8)    -90.0000         0.010000   
    305. D(B  11,B   9,B   7,B   5)      0.0000         0.010000   
    306. D(B  11,B   9,B   7,B   6)    -90.0000         0.010000   
    307. D(B   8,B   9,B   7,B   4)     47.2695         0.010000   
    308. D(B   8,B   9,B   7,B   5)     90.0000         0.010000   
    309. D(B   8,B   9,B   7,B   6)      0.0000         0.010000   
    310. D(B  10,B   9,B   6,B   7)    137.2555         0.010000   
    311. D(B  11,B   9,B   6,B   5)     67.0883         0.010000   
    312. D(B  11,B   9,B   6,B   8)    -70.1673         0.010000   
    313. D(B  11,B   9,B   6,B   4)     39.6655         0.010000   
    314. D(B  11,B   9,B   6,B   7)    109.8327         0.010000   
    315. D(B   8,B   9,B   6,B   5)    137.2555         0.010000   
    316. D(B   7,B   9,B   8,B  10)   -120.0000         0.010000   
    317. D(B   8,B   9,B   6,B   4)    109.8327         0.010000   
    318. D(B   8,B   9,B   6,B   7)    180.0000         0.010000   
    319. D(B   1,B  10,B   9,B   8)   -137.2555         0.010000   
    320. D(B   0,B  10,B   9,B   7)    -39.6655         0.010000   
    321. D(B   0,B  10,B   9,B  11)     70.1673         0.010000   
    322. D(B   0,B  10,B   9,B   8)   -109.8327         0.010000   
    323. D(B  11,B  10,B   9,B   6)   -137.2555         0.010000   
    324. D(B  11,B  10,B   9,B   7)   -109.8327         0.010000   
    325. D(B  11,B  10,B   9,B   8)    180.0000         0.010000   
    326. D(B   1,B  10,B   8,B   9)     47.2695         0.010000   
    327. D(B   0,B  10,B   8,B   6)      0.0000         0.010000   
    328. D(B   0,B  10,B   8,B  11)     90.0000         0.010000   
    329. D(B   0,B  10,B   8,B   9)     90.0000         0.010000   
    330. D(B  11,B  10,B   8,B   6)    -90.0000         0.010000   
    331. D(B  11,B  10,B   8,B   9)      0.0000         0.010000   
    332. D(B   8,B  10,B   1,B   3)     39.6655         0.010000   
    333. D(B   8,B  10,B   1,B   0)    109.8327         0.010000   
    334. D(B   0,B  10,B   1,B  11)    180.0000         0.010000   
    335. D(B   0,B  10,B   1,B   2)    -42.7445         0.010000   
    336. D(B  11,B  10,B   8,B   7)    -47.2695         0.010000   
    337. D(B   0,B  10,B   1,B   3)    -70.1673         0.010000   
    338. D(B  11,B  10,B   1,B   2)    137.2555         0.010000   
    339. D(B  11,B  10,B   1,B   3)    109.8327         0.010000   
    340. D(B   0,B  10,B   8,B   7)     42.7305         0.010000   
    341. D(B  11,B  10,B   1,B   0)    180.0000         0.010000   
    342. D(B   8,B  10,B   0,B   2)      0.0000         0.010000   
    343. D(B   8,B  10,B   0,B   1)    -90.0000         0.010000   
    344. D(B   1,B  10,B   0,B  11)      0.0000         0.010000   
    345. D(B   1,B  10,B   0,B   3)     47.2695         0.010000   
    346. D(B   1,B  10,B   0,B   2)     90.0000         0.010000   
    347. D(B  11,B  10,B   0,B   3)     47.2695         0.010000   
    348. D(B   0,B  10,B   9,B   6)    -67.0883         0.010000   
    349. D(B  11,B  10,B   0,B   2)     90.0000         0.010000   
    350. D(B  11,B  10,B   0,B   1)      0.0000         0.010000   
    351. D(B   9,B  11,B  10,B   1)   -120.0000         0.010000   
    352. D(B   0,B  11,B  10,B   9)    120.0000         0.010000   
    353. D(B   0,B  11,B  10,B   8)    120.0000         0.010000   
    354. D(B   0,B  11,B  10,B   1)      0.0000         0.010000   
    355. D(B   1,B  11,B  10,B   8)    120.0000         0.010000   
    356. D(B   1,B  11,B  10,B   0)      0.0000         0.010000   
    357. D(B   0,B  11,B   9,B   8)    -47.2695         0.010000   
    358. D(B   1,B  11,B   9,B   7)      0.0000         0.010000   
    359. D(B   1,B  11,B   9,B  10)    -90.0000         0.010000   
    360. D(B   1,B  11,B   9,B   8)    -90.0000         0.010000   
    361. D(B  10,B  11,B   9,B   6)     47.2695         0.010000   
    362. D(B  10,B  11,B   9,B   7)     90.0000         0.010000   
    363. D(B  10,B  11,B   9,B   8)      0.0000         0.010000   
    364. D(B   0,B  11,B   8,B   9)    137.2555         0.010000   
    365. D(B   1,B  11,B   8,B   6)     39.6655         0.010000   
    366. D(B   1,B  11,B   8,B  10)    -70.1673         0.010000   
    367. D(B   1,B  11,B   8,B   9)    109.8327         0.010000   
    368. D(B  10,B  11,B   8,B   7)    137.2555         0.010000   
    369. D(B  10,B  11,B   8,B   6)    109.8327         0.010000   
    370. D(B  10,B  11,B   8,B   9)    180.0000         0.010000   
    371. D(B   9,B  11,B   1,B   3)      0.0000         0.010000   
    372. D(B   1,B  11,B   8,B   7)     67.0883         0.010000   
    373. D(B   9,B  11,B   1,B   0)     90.0000         0.010000   
    374. D(B   0,B  11,B   1,B  10)      0.0000         0.010000   
    375. D(B   0,B  11,B   1,B   2)    -47.2695         0.010000   
    376. D(B   0,B  11,B   1,B   3)    -90.0000         0.010000   
    377. D(B  10,B  11,B   1,B   2)    -47.2695         0.010000   
    378. D(B  10,B  11,B   1,B   3)    -90.0000         0.010000   
    379. D(B  10,B  11,B   1,B   0)      0.0000         0.010000   
    380. D(B   1,B  11,B   9,B   6)    -42.7305         0.010000   
    381. D(B   9,B  11,B   0,B   2)    -39.6655         0.010000   
    382. D(B   9,B  11,B   0,B   1)   -109.8327         0.010000   
    383. D(B   1,B  11,B   0,B  10)   -180.0000         0.010000   
    384. D(B   1,B  11,B  10,B   9)    120.0000         0.010000   
    385. D(B   1,B  11,B   0,B   3)     42.7445         0.010000   
    386. D(B   1,B  11,B   0,B   2)     70.1673         0.010000   
    387. D(B  10,B  11,B   0,B   3)   -137.2555         0.010000   
    388. D(B   9,B  11,B  10,B   0)   -120.0000         0.010000   
    389. D(B  10,B  11,B   0,B   2)   -109.8327         0.010000   
    390. D(B  10,B  11,B   0,B   1)    180.0000         0.010000   
    -----------------------------------------------------------------

Number of atoms                         .... 12
Number of degrees of freedom            .... 390


         *************************************************************
         *                GEOMETRY OPTIMIZATION CYCLE   1            *
         *************************************************************
---------------------------------
CARTESIAN COORDINATES (ANGSTROEM)
---------------------------------
  B      2.250000   -0.000000    0.900000
  B      2.250000   -0.000000   -0.900000
  B      1.125000    1.948557    0.900000
  B      1.125000    1.948557   -0.900000
  B     -1.125000    1.948557    0.900000
  B     -1.125000    1.948557   -0.900000
  B     -2.250000    0.000000    0.900000
  B     -2.250000    0.000000   -0.900000
  B     -1.125000   -1.948557    0.900000
  B     -1.125000   -1.948557   -0.900000
  B      1.125000   -1.948557    0.900000
  B      1.125000   -1.948557   -0.900000

----------------------------
CARTESIAN COORDINATES (A.U.)
----------------------------
  NO LB      ZA    FRAG     MASS         X           Y           Z
   0 B     5.0000    0    10.810    4.251884   -0.000000    1.700754
   1 B     5.0000    0    10.810    4.251884   -0.000000   -1.700754
   2 B     5.0000    0    10.810    2.125942    3.682239    1.700754
   3 B     5.0000    0    10.810    2.125942    3.682239   -1.700754
   4 B     5.0000    0    10.810   -2.125942    3.682239    1.700754
   5 B     5.0000    0    10.810   -2.125942    3.682239   -1.700754
   6 B     5.0000    0    10.810   -4.251884    0.000000    1.700754
   7 B     5.0000    0    10.810   -4.251884    0.000000   -1.700754
   8 B     5.0000    0    10.810   -2.125942   -3.682239    1.700754
   9 B     5.0000    0    10.810   -2.125942   -3.682239   -1.700754
  10 B     5.0000    0    10.810    2.125942   -3.682239    1.700754
  11 B     5.0000    0    10.810    2.125942   -3.682239   -1.700754

--------------------------------
INTERNAL COORDINATES (ANGSTROEM)
--------------------------------
 B      0   0   0     0.000000000000     0.00000000     0.00000000
 B      1   0   0     1.800000000000     0.00000000     0.00000000
 B      1   2   0     2.250000001286    90.00000000     0.00000000
 B      3   1   2     1.800000000000    90.00000000     0.00000000
 B      3   1   2     2.250000000000   119.99999998    90.00000000
 B      5   3   1     1.800000000000    90.00000000   270.00000000
 B      5   3   1     2.250000001286   119.99999998     0.00000000
 B      7   5   3     1.800000000000    90.00000000   270.00000000
 B      7   5   3     2.250000001286   120.00000004     0.00000000
 B      9   7   5     1.800000000000    90.00000000   270.00000000
 B      9   7   5     2.250000000000   119.99999998     0.00000000
 B     11   9   7     1.800000000000    90.00000000   270.00000000

---------------------------
INTERNAL COORDINATES (A.U.)
---------------------------
 B      0   0   0     0.000000000000     0.00000000     0.00000000
 B      1   0   0     3.401507041058     0.00000000     0.00000000
 B      1   2   0     4.251883803753    90.00000000     0.00000000
 B      3   1   2     3.401507041058    90.00000000     0.00000000
 B      3   1   2     4.251883801323   119.99999998    90.00000000
 B      5   3   1     3.401507041058    90.00000000   270.00000000
 B      5   3   1     4.251883803753   119.99999998     0.00000000
 B      7   5   3     3.401507041058    90.00000000   270.00000000
 B      7   5   3     4.251883803753   120.00000004     0.00000000
 B      9   7   5     3.401507041058    90.00000000   270.00000000
 B      9   7   5     4.251883801323   119.99999998     0.00000000
 B     11   9   7     3.401507041058    90.00000000   270.00000000

---------------------
BASIS SET INFORMATION
---------------------
There are 1 groups of distinct atoms

 Group   1 Type B   : 7s4p1d contracted to 3s2p1d pattern {511/31/1}

Atom   0B    basis set group =>   1
Atom   1B    basis set group =>   1
Atom   2B    basis set group =>   1
Atom   3B    basis set group =>   1
Atom   4B    basis set group =>   1
Atom   5B    basis set group =>   1
Atom   6B    basis set group =>   1
Atom   7B    basis set group =>   1
Atom   8B    basis set group =>   1
Atom   9B    basis set group =>   1
Atom  10B    basis set group =>   1
Atom  11B    basis set group =>   1
---------------------------------
AUXILIARY/J BASIS SET INFORMATION
---------------------------------
There are 1 groups of distinct atoms

 Group   1 Type B   : 12s5p4d2f1g contracted to 6s4p3d1f1g pattern {711111/2111/211/2/1}

Atom   0B    basis set group =>   1
Atom   1B    basis set group =>   1
Atom   2B    basis set group =>   1
Atom   3B    basis set group =>   1
Atom   4B    basis set group =>   1
Atom   5B    basis set group =>   1
Atom   6B    basis set group =>   1
Atom   7B    basis set group =>   1
Atom   8B    basis set group =>   1
Atom   9B    basis set group =>   1
Atom  10B    basis set group =>   1
Atom  11B    basis set group =>   1


           ************************************************************
           *        Program running with 8 parallel MPI-processes     *
           *              working on a common directory               *
           ************************************************************
------------------------------------------------------------------------------
                             ORCA STARTUP CALCULATIONS
                           -- RI-GTO INTEGRALS CHOSEN --
------------------------------------------------------------------------------
------------------------------------------------------------------------------
                   ___                                                        
                  /   \      - P O W E R E D   B Y -                         
                 /     \                                                     
                 |  |  |   _    _      __       _____    __    __             
                 |  |  |  | |  | |    /  \     |  _  \  |  |  /  |          
                  \  \/   | |  | |   /    \    | | | |  |  | /  /          
                 / \  \   | |__| |  /  /\  \   | |_| |  |  |/  /          
                |  |  |   |  __  | /  /__\  \  |    /   |      \           
                |  |  |   | |  | | |   __   |  |    \   |  |\   \          
                \     /   | |  | | |  |  |  |  | |\  \  |  | \   \       
                 \___/    |_|  |_| |__|  |__|  |_| \__\ |__|  \__/        
                                                                              
                      - O R C A' S   B I G   F R I E N D -                    
                                      &                                       
                       - I N T E G R A L  F E E D E R -                       
                                                                              
 v1 FN, 2020, v2 2021, v3 2022-2024                                           
------------------------------------------------------------------------------


----------------------
SHARK INTEGRAL PACKAGE
----------------------

Number of atoms                             ...     12
Number of basis functions                   ...    168
Number of shells                            ...     72
Maximum angular momentum                    ...      2
Integral batch strategy                     ... SHARK/LIBINT Hybrid
RI-J (if used) integral strategy            ... SPLIT-RIJ (Revised 2003 algorithm where possible)
Printlevel                                  ...      1
Contraction scheme used                     ... SEGMENTED contraction
Prescreening option                         ... SCHWARTZ
   Thresh                                   ... 2.500e-11
   Tcut                                     ... 2.500e-12
   Tpresel                                  ... 2.500e-12 
Coulomb Range Separation                    ... NOT USED
Exchange Range Separation                   ... NOT USED
Multipole approximations                    ... NOT USED
Finite Nucleus Model                        ... NOT USED
CABS basis                                  ... NOT available
Auxiliary Coulomb fitting basis             ... AVAILABLE
   # of basis functions in Aux-J            ...    588
   # of shells in Aux-J                     ...    180
   Maximum angular momentum in Aux-J        ...      4
Auxiliary J/K fitting basis                 ... NOT available
Auxiliary Correlation fitting basis         ... NOT available
Auxiliary 'external' fitting basis          ... NOT available

Checking pre-screening integrals            ... done (  0.0 sec) Dimension = 72
   => SHARK Basis and OBASIS are compatible. Storing Pre-screening
Shell pair information
Shell pair cut-off parameter TPreSel        ...   2.5e-12
Total number of shell pairs                 ...      2628
Shell pairs after pre-screening             ...      2556
Total number of primitive shell pairs       ...     10596
Primitive shell pairs kept                  ...      7410
          la=0 lb=0:    618 shell pairs
          la=1 lb=0:    864 shell pairs
          la=1 lb=1:    300 shell pairs
          la=2 lb=0:    408 shell pairs
          la=2 lb=1:    288 shell pairs
          la=2 lb=2:     78 shell pairs

Checking whether 4 symmetric matrices of dimension 168 fit in memory
:Max Core in MB      =   2500.00
 MB in use           =      6.79
 MB left             =   2493.21
 MB needed           =      0.43
 Data fit in memory  = YES
Calculating RI/J V-Matrix + Cholesky decomp.... done (  0.0 sec)
Calculating Nuclear repulsion               ... done (  0.0 sec) ENN=    281.485632369949 Eh

Diagonalization of the overlap matrix:
Smallest eigenvalue                        ... 9.338e-05
Time for diagonalization                   ...    0.004 sec
Threshold for overlap eigenvalues          ... 1.000e-07
Number of eigenvalues below threshold      ... 0
Time for construction of square roots      ...    0.002 sec
Total time needed                          ...    0.008 sec

-------------------
DFT GRID GENERATION
-------------------

General Integration Accuracy     IntAcc      ... 4.388
Radial Grid Type                 RadialGrid  ... OptM3 with GC (2021)
Angular Grid (max. ang.)         AngularGrid ... 4 (Lebedev-302)
Angular grid pruning method      GridPruning ... 4 (adaptive)
Weight generation scheme         WeightScheme... mBecke (2022)
Basis function cutoff            BFCut       ... 1.0000e-11
Integration weight cutoff        WCut        ... 1.0000e-14
Partially contracted basis set               ... off
Rotationally invariant grid construction     ... off
Angular grids for H and He will be reduced by one unit

Total number of grid points                  ...    71872
Total number of batches                      ...     1128
Average number of points per batch           ...       63
Average number of grid points per atom       ...     5989
Grids setup in   0.8 sec
Initializing property integral containers    ... done (  0.0 sec)

SHARK setup successfully completed in   0.9 seconds

Maximum memory used throughout the entire STARTUP-calculation: 19.9 MB


           ************************************************************
           *        Program running with 8 parallel MPI-processes     *
           *              working on a common directory               *
           ************************************************************
-------------------------------------------------------------------------------
                                 ORCA GUESS
                   Start orbitals & Density for SCF / CASSCF
-------------------------------------------------------------------------------

------------
SCF SETTINGS
------------
Hamiltonian:
 Density Functional     Method          .... DFT(GTOs)
 Exchange Functional    Exchange        .... B88
   X-Alpha parameter    XAlpha          ....  0.666667
   Becke's b parameter  XBeta           ....  0.004200
 Correlation Functional Correlation     .... P86
 LDA part of GGA corr.  LDAOpt          .... PW91-LDA
 Gradients option       PostSCFGGA      .... off
   NL short-range parameter             ....  4.400000
 RI-approximation to the Coulomb term is turned on
   Number of AuxJ basis functions       .... 588


General Settings:
 Integral files         IntName         .... hex_prism_nn1.80
 Hartree-Fock type      HFTyp           .... RHF
 Total Charge           Charge          ....    0
 Multiplicity           Mult            ....    1
 Number of Electrons    NEL             ....   60
 Basis Dimension        Dim             ....  168
 Nuclear Repulsion      ENuc            ....    281.4856323699 Eh

Convergence Acceleration:
 AO-DIIS                CNVDIIS         .... on
   Start iteration      DIISMaxIt       ....     0
   Startup error        DIISStart       ....  0.200000
   # of expansion vecs  DIISMaxEq       ....     5
   Bias factor          DIISBfac        ....   1.050
   Max. coefficient     DIISMaxC        ....  10.000
 MO-DIIS                CNVKDIIS        .... off
 Trust-Rad. Augm. Hess. CNVTRAH         .... auto
   Auto Start mean grad. ratio tolernc. ....  1.125000
   Auto Start start iteration           ....    50
   Auto Start num. interpolation iter.  ....    10
   Max. Number of Micro iterations      ....    24
   Max. Number of Macro iterations      .... Maxiter - #DIIS iter
   Number of Davidson start vectors     ....     2
   Converg. threshold    (grad. norm)   ....   1.000e-05
   Grad. Scal. Fac. for Micro threshold ....   0.100
   Minimum threshold for Micro iter.    ....   1.000e-02
   NR start threshold (gradient norm)   ....   1.000e-04
   Initial trust radius                 ....   0.400
   Minimum AH scaling param. (alpha)    ....   1.000
   Maximum AH scaling param. (alpha)    .... 1000.000
   Quad. conv. algorithm                .... NR
   White noise on init. David. guess    .... on
   Maximum white noise                  ....   0.010
   Pseudo random numbers                .... off
   Inactive MOs                         .... canonical
   Orbital update algorithm             .... Taylor
   Preconditioner                       .... Diag
   Full preconditioner red. dimension   ....   250
 SOSCF                 CNVSOSCF           .... on
   Start iteration     SOSCFMaxIt         ....   150
   Startup grad/error  SOSCFStart         ....  0.001000
   Hessian update      SOSCFHessUp        .... L-BFGS
   Autom. constraints  SOSCFAutoConstrain .... off
 Level Shifting         CNVShift        .... on
   Level shift para.    LevelShift      ....    0.2500
   Turn off err/grad.   ShiftErr        ....    0.0000
 Zerner damping         CNVZerner       .... off
 Static damping         CNVDamp         .... on
   Fraction old density DampFac         ....    0.8500
   Max. Damping (<1)    DampMax         ....    0.9800
   Min. Damping (>=0)   DampMin         ....    0.0000
   Turn off err/grad.   DampErr         ....    0.0300

SCF Procedure:
 Maximum # iterations   MaxIter         ....   125
 SCF integral mode      SCFMode         .... Direct
   Integral package                     .... SHARK and LIBINT hybrid scheme
 Reset frequency        DirectResetFreq ....    20
 Integral Threshold     Thresh          ....  2.500e-11 Eh
 Primitive CutOff       TCut            ....  2.500e-12 Eh

Convergence Tolerance:
 Convergence Check Mode ConvCheckMode   .... Total+1el-Energy
 Convergence forced     ConvForced      .... 0
 Energy Change          TolE            ....  1.000e-08 Eh
 1-El. energy change                    ....  1.000e-05 Eh
 Orbital Gradient       TolG            ....  1.000e-05
 Orbital Rotation angle TolX            ....  1.000e-05
 DIIS Error             TolErr          ....  5.000e-07

------------------------------
INITIAL GUESS: MODEL POTENTIAL
------------------------------
Loading Hartree-Fock densities                     ... done
Calculating cut-offs                               ... done
Initializing the effective Hamiltonian             ... done
Setting up the integral package (SHARK)            ... done
Starting the Coulomb interaction                   ... done (   0.0 sec)
Making the grid                                    ... done (   0.2 sec)
Mapping shells                                     ... done
Starting the XC term evaluation                    ... done (   0.0 sec)
  promolecular density results
     # of electrons  =     60.000950217
     EX              =    -44.914840582
     EC              =     -1.862960132
     EX+EC           =    -46.777800713
Transforming the Hamiltonian                       ... done (   0.0 sec)
Diagonalizing the Hamiltonian                      ... done (   0.0 sec)
Back transforming the eigenvectors                 ... done (   0.0 sec)
Now organizing SCF variables                       ... done
                      ------------------
                      INITIAL GUESS DONE (   0.3 sec)
                      ------------------
             **** ENERGY FILE WAS UPDATED (hex_prism_nn1.80.en.tmp) ****
Finished Guess after   0.7 sec
Maximum memory used throughout the entire GUESS-calculation: 9.6 MB


           ************************************************************
           *        Program running with 8 parallel MPI-processes     *
           *              working on a common directory               *
           ************************************************************

-------------------------------------------------------------------------------------------
                                      ORCA LEAN-SCF
                              memory conserving SCF solver
-------------------------------------------------------------------------------------------

----------------------------------------D-I-I-S--------------------------------------------
Iteration    Energy (Eh)           Delta-E    RMSDP     MaxDP     DIISErr   Damp  Time(sec)
-------------------------------------------------------------------------------------------
               ***  Starting incremental Fock matrix formation  ***
    1    -296.7367385388037633     0.00e+00  3.95e-03  1.59e-02  5.83e-02  0.850   0.4
Warning: op=0 Small HOMO/LUMO gap (  -0.013) - skipping pre-diagonalization
         Will do a full diagonalization
    2    -296.7699850491197253    -3.32e-02  5.08e-03  2.05e-02  4.54e-02  0.850   0.3
                               ***Turning on AO-DIIS***
    3    -296.7930156489402975    -2.30e-02  2.97e-03  1.24e-02  2.95e-02  0.850   0.4
    4    -296.8061225064445239    -1.31e-02  1.18e-02  4.90e-02  2.05e-02  0.000   0.4
    5    -296.8440598759545423    -3.79e-02  2.53e-03  1.02e-02  1.64e-02  0.000   0.4
    6    -296.8507553365248555    -6.70e-03  1.18e-03  4.80e-03  7.26e-03  0.000   0.3
    7    -296.8521143100742279    -1.36e-03  4.77e-04  1.87e-03  3.15e-03  0.000   0.4
    8    -296.8523794117692773    -2.65e-04  2.18e-04  7.65e-04  1.35e-03  0.000   0.4
                              *** Initializing SOSCF ***
---------------------------------------S-O-S-C-F--------------------------------------
Iteration    Energy (Eh)           Delta-E    RMSDP     MaxDP     MaxGrad    Time(sec)
--------------------------------------------------------------------------------------
    9    -296.8524353788860140    -5.60e-05  1.05e-04  3.72e-04  6.01e-04     0.3
               *** Restarting incremental Fock matrix formation ***
   10    -296.8524489798213040    -1.36e-05  1.60e-04  6.77e-04  4.55e-04     0.3
   11    -296.8524548374301162    -5.86e-06  1.69e-04  5.05e-04  2.65e-04     0.4
   12    -296.8524628052155663    -7.97e-06  3.65e-04  1.31e-03  2.03e-04     0.7
   13    -296.8524722326577034    -9.43e-06  3.65e-04  1.40e-03  1.84e-04     0.7
   14    -296.8524750406710950    -2.81e-06  1.32e-04  5.01e-04  3.33e-04     0.8
   15    -296.8524783658581896    -3.33e-06  7.33e-05  2.18e-04  7.58e-05     0.5
   16    -296.8524787340064108    -3.68e-07  1.28e-05  5.76e-05  2.25e-05     0.5
   17    -296.8524787749524307    -4.09e-08  6.13e-06  2.59e-05  1.01e-05     0.4
   18    -296.8524787830824039    -8.13e-09  8.91e-06  3.62e-05  9.36e-06     0.4
                 **** Energy Check signals convergence ****

               *****************************************************
               *                     SUCCESS                       *
               *           SCF CONVERGED AFTER  18 CYCLES          *
               *****************************************************

             **** ENERGY FILE WAS UPDATED (hex_prism_nn1.80.en.tmp) ****

----------------
TOTAL SCF ENERGY
----------------

Total Energy       :       -296.85247878392835 Eh           -8077.76661 eV

Components:
Nuclear Repulsion  :        281.48563236994863 Eh            7659.61346 eV
Electronic Energy  :       -578.33811115387698 Eh          -15737.38008 eV
One Electron Energy:       -952.30066465477319 Eh          -25913.41850 eV
Two Electron Energy:        373.96255350089621 Eh           10176.03842 eV

Virial components:
Potential Energy   :       -587.75177857716676 Eh          -15993.53899 eV
Kinetic Energy     :        290.89929979323847 Eh            7915.77238 eV
Virial Ratio       :          2.02046474156150

DFT components:
N(Alpha)           :       29.999718862431 electrons
N(Beta)            :       29.999718862431 electrons
N(Total)           :       59.999437724862 electrons
E(X)               :      -45.218956666850 Eh       
E(C)               :       -1.892079874610 Eh       
E(XC)              :      -47.111036541460 Eh       

---------------
SCF CONVERGENCE
---------------

  Last Energy change         ...    8.1300e-09  Tolerance :   1.0000e-08
  Last MAX-Density change    ...    3.6236e-05  Tolerance :   1.0000e-07
  Last RMS-Density change    ...    8.9063e-06  Tolerance :   5.0000e-09
  Last DIIS Error            ...    6.0127e-04  Tolerance :   5.0000e-07
  Last Orbital Gradient      ...    9.3602e-06  Tolerance :   1.0000e-05
  Last Orbital Rotation      ...    1.5646e-04  Tolerance :   1.0000e-05


----------------
ORBITAL ENERGIES
----------------

  NO   OCC          E(Eh)            E(eV) 
   0   2.0000      -6.616913      -180.0554 
   1   2.0000      -6.616866      -180.0541 
   2   2.0000      -6.616821      -180.0529 
   3   2.0000      -6.616818      -180.0528 
   4   2.0000      -6.616754      -180.0510 
   5   2.0000      -6.616750      -180.0509 
   6   2.0000      -6.616661      -180.0485 
   7   2.0000      -6.616657      -180.0484 
   8   2.0000      -6.616604      -180.0469 
   9   2.0000      -6.616600      -180.0468 
  10   2.0000      -6.616437      -180.0424 
  11   2.0000      -6.616403      -180.0415 
  12   2.0000      -0.530898       -14.4465 
  13   2.0000      -0.494457       -13.4549 
  14   2.0000      -0.494455       -13.4548 
  15   2.0000      -0.415348       -11.3022 
  16   2.0000      -0.415344       -11.3021 
  17   2.0000      -0.361411        -9.8345 
  18   2.0000      -0.335536        -9.1304 
  19   2.0000      -0.325534        -8.8582 
  20   2.0000      -0.325533        -8.8582 
  21   2.0000      -0.284735        -7.7480 
  22   2.0000      -0.251593        -6.8462 
  23   2.0000      -0.251593        -6.8462 
  24   2.0000      -0.251068        -6.8319 
  25   2.0000      -0.232075        -6.3151 
  26   2.0000      -0.207150        -5.6368 
  27   2.0000      -0.207148        -5.6368 
  28   2.0000      -0.205378        -5.5886 
  29   2.0000      -0.205375        -5.5885 
  30   0.0000      -0.206504        -5.6193 
  31   0.0000      -0.206504        -5.6193 
  32   0.0000      -0.165524        -4.5041 
  33   0.0000      -0.156734        -4.2649 
  34   0.0000      -0.150356        -4.0914 
  35   0.0000      -0.150352        -4.0913 
  36   0.0000      -0.121266        -3.2998 
  37   0.0000      -0.115578        -3.1450 
  38   0.0000      -0.082222        -2.2374 
  39   0.0000      -0.082218        -2.2373 
  40   0.0000      -0.073557        -2.0016 
*Only the first 10 virtual orbitals were printed.

                    ********************************
                    * MULLIKEN POPULATION ANALYSIS *
                    ********************************

-----------------------
MULLIKEN ATOMIC CHARGES
-----------------------
   0 B :   -0.000100
   1 B :   -0.000036
   2 B :   -0.000001
   3 B :    0.000068
   4 B :   -0.000000
   5 B :    0.000069
   6 B :   -0.000100
   7 B :   -0.000036
   8 B :   -0.000002
   9 B :    0.000070
  10 B :   -0.000001
  11 B :    0.000067
Sum of atomic charges:   -0.0000000

--------------------------------
MULLIKEN REDUCED ORBITAL CHARGES
--------------------------------
  0 B s       :     3.363117  s :     3.363117
      pz      :     0.587688  p :     1.616392
      px      :     0.449841
      py      :     0.578863
      dz2     :     0.007437  d :     0.020591
      dxz     :     0.002489
      dyz     :     0.004077
      dx2y2   :     0.002712
      dxy     :     0.003876

  1 B s       :     3.363105  s :     3.363105
      pz      :     0.587670  p :     1.616340
      px      :     0.449822
      py      :     0.578849
      dz2     :     0.007437  d :     0.020591
      dxz     :     0.002489
      dyz     :     0.004077
      dx2y2   :     0.002712
      dxy     :     0.003876

  2 B s       :     3.363105  s :     3.363105
      pz      :     0.587817  p :     1.616305
      px      :     0.546554
      py      :     0.481934
      dz2     :     0.007438  d :     0.020591
      dxz     :     0.003679
      dyz     :     0.002885
      dx2y2   :     0.003585
      dxy     :     0.003003

  3 B s       :     3.363088  s :     3.363088
      pz      :     0.587800  p :     1.616253
      px      :     0.546538
      py      :     0.481915
      dz2     :     0.007438  d :     0.020591
      dxz     :     0.003679
      dyz     :     0.002885
      dx2y2   :     0.003585
      dxy     :     0.003003

  4 B s       :     3.363104  s :     3.363104
      pz      :     0.587818  p :     1.616306
      px      :     0.546554
      py      :     0.481934
      dz2     :     0.007438  d :     0.020591
      dxz     :     0.003679
      dyz     :     0.002885
      dx2y2   :     0.003585
      dxy     :     0.003003

  5 B s       :     3.363087  s :     3.363087
      pz      :     0.587800  p :     1.616253
      px      :     0.546538
      py      :     0.481915
      dz2     :     0.007438  d :     0.020591
      dxz     :     0.003679
      dyz     :     0.002885
      dx2y2   :     0.003585
      dxy     :     0.003003

  6 B s       :     3.363117  s :     3.363117
      pz      :     0.587688  p :     1.616392
      px      :     0.449841
      py      :     0.578863
      dz2     :     0.007437  d :     0.020591
      dxz     :     0.002489
      dyz     :     0.004077
      dx2y2   :     0.002712
      dxy     :     0.003876

  7 B s       :     3.363104  s :     3.363104
      pz      :     0.587670  p :     1.616341
      px      :     0.449822
      py      :     0.578849
      dz2     :     0.007437  d :     0.020591
      dxz     :     0.002489
      dyz     :     0.004077
      dx2y2   :     0.002712
      dxy     :     0.003876

  8 B s       :     3.363105  s :     3.363105
      pz      :     0.587818  p :     1.616305
      px      :     0.546554
      py      :     0.481934
      dz2     :     0.007438  d :     0.020591
      dxz     :     0.003679
      dyz     :     0.002885
      dx2y2   :     0.003585
      dxy     :     0.003003

  9 B s       :     3.363086  s :     3.363086
      pz      :     0.587800  p :     1.616253
      px      :     0.546538
      py      :     0.481915
      dz2     :     0.007438  d :     0.020591
      dxz     :     0.003679
      dyz     :     0.002885
      dx2y2   :     0.003585
      dxy     :     0.003003

 10 B s       :     3.363106  s :     3.363106
      pz      :     0.587816  p :     1.616304
      px      :     0.546554
      py      :     0.481934
      dz2     :     0.007438  d :     0.020591
      dxz     :     0.003679
      dyz     :     0.002885
      dx2y2   :     0.003585
      dxy     :     0.003003

 11 B s       :     3.363089  s :     3.363089
      pz      :     0.587799  p :     1.616252
      px      :     0.546538
      py      :     0.481915
      dz2     :     0.007438  d :     0.020591
      dxz     :     0.003679
      dyz     :     0.002885
      dx2y2   :     0.003585
      dxy     :     0.003003



                     *******************************
                     * LOEWDIN POPULATION ANALYSIS *
                     *******************************

----------------------
LOEWDIN ATOMIC CHARGES
----------------------
   0 B :   -0.000054
   1 B :    0.000002
   2 B :   -0.000015
   3 B :    0.000041
   4 B :   -0.000015
   5 B :    0.000041
   6 B :   -0.000054
   7 B :    0.000002
   8 B :   -0.000015
   9 B :    0.000041
  10 B :   -0.000015
  11 B :    0.000041

-------------------------------
LOEWDIN REDUCED ORBITAL CHARGES
-------------------------------
  0 B s       :     3.089454  s :     3.089454
      pz      :     0.734012  p :     1.863561
      px      :     0.470868
      py      :     0.658680
      dz2     :     0.024421  d :     0.047040
      dxz     :     0.003676
      dyz     :     0.005634
      dx2y2   :     0.004809
      dxy     :     0.008501

  1 B s       :     3.089442  s :     3.089442
      pz      :     0.734000  p :     1.863516
      px      :     0.470850
      py      :     0.658666
      dz2     :     0.024421  d :     0.047040
      dxz     :     0.003676
      dyz     :     0.005633
      dx2y2   :     0.004808
      dxy     :     0.008500

  2 B s       :     3.089463  s :     3.089463
      pz      :     0.734143  p :     1.863513
      px      :     0.611675
      py      :     0.517695
      dz2     :     0.024422  d :     0.047040
      dxz     :     0.005143
      dyz     :     0.004165
      dx2y2   :     0.007578
      dxy     :     0.005732

  3 B s       :     3.089451  s :     3.089451
      pz      :     0.734130  p :     1.863467
      px      :     0.611660
      py      :     0.517677
      dz2     :     0.024423  d :     0.047041
      dxz     :     0.005144
      dyz     :     0.004165
      dx2y2   :     0.007578
      dxy     :     0.005732

  4 B s       :     3.089463  s :     3.089463
      pz      :     0.734143  p :     1.863513
      px      :     0.611675
      py      :     0.517695
      dz2     :     0.024422  d :     0.047040
      dxz     :     0.005143
      dyz     :     0.004165
      dx2y2   :     0.007578
      dxy     :     0.005732

  5 B s       :     3.089451  s :     3.089451
      pz      :     0.734130  p :     1.863467
      px      :     0.611660
      py      :     0.517677
      dz2     :     0.024423  d :     0.047041
      dxz     :     0.005144
      dyz     :     0.004165
      dx2y2   :     0.007578
      dxy     :     0.005732

  6 B s       :     3.089454  s :     3.089454
      pz      :     0.734012  p :     1.863561
      px      :     0.470868
      py      :     0.658680
      dz2     :     0.024421  d :     0.047040
      dxz     :     0.003676
      dyz     :     0.005634
      dx2y2   :     0.004809
      dxy     :     0.008501

  7 B s       :     3.089442  s :     3.089442
      pz      :     0.734000  p :     1.863516
      px      :     0.470850
      py      :     0.658666
      dz2     :     0.024421  d :     0.047040
      dxz     :     0.003676
      dyz     :     0.005633
      dx2y2   :     0.004808
      dxy     :     0.008500

  8 B s       :     3.089463  s :     3.089463
      pz      :     0.734143  p :     1.863513
      px      :     0.611675
      py      :     0.517695
      dz2     :     0.024422  d :     0.047040
      dxz     :     0.005143
      dyz     :     0.004165
      dx2y2   :     0.007578
      dxy     :     0.005732

  9 B s       :     3.089451  s :     3.089451
      pz      :     0.734130  p :     1.863467
      px      :     0.611660
      py      :     0.517677
      dz2     :     0.024423  d :     0.047041
      dxz     :     0.005144
      dyz     :     0.004165
      dx2y2   :     0.007578
      dxy     :     0.005732

 10 B s       :     3.089463  s :     3.089463
      pz      :     0.734143  p :     1.863513
      px      :     0.611675
      py      :     0.517695
      dz2     :     0.024422  d :     0.047040
      dxz     :     0.005143
      dyz     :     0.004165
      dx2y2   :     0.007578
      dxy     :     0.005732

 11 B s       :     3.089451  s :     3.089451
      pz      :     0.734130  p :     1.863467
      px      :     0.611660
      py      :     0.517677
      dz2     :     0.024423  d :     0.047041
      dxz     :     0.005144
      dyz     :     0.004165
      dx2y2   :     0.007578
      dxy     :     0.005732



                      *****************************
                      * MAYER POPULATION ANALYSIS *
                      *****************************

  NA   - Mulliken gross atomic population
  ZA   - Total nuclear charge
  QA   - Mulliken gross atomic charge
  VA   - Mayer's total valence
  BVA  - Mayer's bonded valence
  FA   - Mayer's free valence

  ATOM       NA         ZA         QA         VA         BVA        FA
  0 B      5.0001     5.0000    -0.0001     3.0916     3.0916     0.0000
  1 B      5.0000     5.0000    -0.0000     3.0916     3.0916     0.0000
  2 B      5.0000     5.0000    -0.0000     3.0915     3.0915     0.0000
  3 B      4.9999     5.0000     0.0001     3.0915     3.0915    -0.0000
  4 B      5.0000     5.0000    -0.0000     3.0915     3.0915    -0.0000
  5 B      4.9999     5.0000     0.0001     3.0915     3.0915    -0.0000
  6 B      5.0001     5.0000    -0.0001     3.0916     3.0916     0.0000
  7 B      5.0000     5.0000    -0.0000     3.0916     3.0916    -0.0000
  8 B      5.0000     5.0000    -0.0000     3.0915     3.0915     0.0000
  9 B      4.9999     5.0000     0.0001     3.0915     3.0915     0.0000
 10 B      5.0000     5.0000    -0.0000     3.0915     3.0915    -0.0000
 11 B      4.9999     5.0000     0.0001     3.0915     3.0915    -0.0000

  Mayer bond orders larger than 0.100000
B(  0-B ,  1-B ) :   1.1249 B(  0-B ,  2-B ) :   0.6584 B(  0-B ,  3-B ) :   0.1604 
B(  0-B , 10-B ) :   0.6584 B(  0-B , 11-B ) :   0.1604 B(  1-B ,  2-B ) :   0.1604 
B(  1-B ,  3-B ) :   0.6584 B(  1-B , 10-B ) :   0.1604 B(  1-B , 11-B ) :   0.6584 
B(  2-B ,  3-B ) :   1.1247 B(  2-B ,  4-B ) :   0.6585 B(  2-B ,  5-B ) :   0.1603 
B(  3-B ,  4-B ) :   0.1603 B(  3-B ,  5-B ) :   0.6585 B(  4-B ,  5-B ) :   1.1247 
B(  4-B ,  6-B ) :   0.6584 B(  4-B ,  7-B ) :   0.1604 B(  5-B ,  6-B ) :   0.1604 
B(  5-B ,  7-B ) :   0.6584 B(  6-B ,  7-B ) :   1.1249 B(  6-B ,  8-B ) :   0.6584 
B(  6-B ,  9-B ) :   0.1604 B(  7-B ,  8-B ) :   0.1604 B(  7-B ,  9-B ) :   0.6584 
B(  8-B ,  9-B ) :   1.1247 B(  8-B , 10-B ) :   0.6585 B(  8-B , 11-B ) :   0.1603 
B(  9-B , 10-B ) :   0.1603 B(  9-B , 11-B ) :   0.6585 B( 10-B , 11-B ) :   1.1247 


-------
TIMINGS
-------

Total SCF time: 0 days 0 hours 0 min 9 sec 

Total time                  ....       9.127 sec
Sum of individual times     ....       8.625 sec  ( 94.5%)

SCF preparation             ....       0.535 sec  (  5.9%)
Fock matrix formation       ....       6.734 sec  ( 73.8%)
  Startup                   ....       0.012 sec  (  0.2% of F)
  Split-RI-J                ....       2.261 sec  ( 33.6% of F)
  XC integration            ....       4.201 sec  ( 62.4% of F)
    XC Preparation          ....       0.000 sec  (  0.0% of XC)
    Basis function eval.    ....       0.818 sec  ( 19.5% of XC)
    Density eval.           ....       0.529 sec  ( 12.6% of XC)
    XC-Functional eval.     ....       0.110 sec  (  2.6% of XC)
    XC-Potential eval.      ....       0.656 sec  ( 15.6% of XC)
Diagonalization             ....       0.000 sec  (  0.0%)
Density matrix formation    ....       0.165 sec  (  1.8%)
Total Energy calculation    ....       0.217 sec  (  2.4%)
Population analysis         ....       0.103 sec  (  1.1%)
Orbital Transformation      ....       0.060 sec  (  0.7%)
Orbital Orthonormalization  ....       0.000 sec  (  0.0%)
DIIS solution               ....       0.288 sec  (  3.2%)
SOSCF solution              ....       0.524 sec  (  5.7%)
Finished LeanSCF after   9.1 sec

Maximum memory used throughout the entire LEANSCF-calculation: 10.0 MB


[...]
      dyz     :     0.011075
      dx2y2   :     0.011158
      dxy     :     0.008409

  9 B s       :     2.716670  s :     2.716670
      pz      :     0.755465  p :     2.217144
      px      :     0.850579
      py      :     0.611100
      dz2     :     0.014552  d :     0.056094
      dxz     :     0.011975
      dyz     :     0.010159
      dx2y2   :     0.009025
      dxy     :     0.010384

 10 B s       :     2.719101  s :     2.719101
      pz      :     0.755724  p :     2.216496
      px      :     0.851254
      py      :     0.609518
      dz2     :     0.014531  d :     0.056082
      dxz     :     0.011970
      dyz     :     0.010133
      dx2y2   :     0.009021
      dxy     :     0.010426

 11 B s       :     2.733995  s :     2.733995
      pz      :     0.755070  p :     2.219521
      px      :     0.733294
      py      :     0.731157
      dz2     :     0.014538  d :     0.056207
      dxz     :     0.011073
      dyz     :     0.011079
      dx2y2   :     0.011145
      dxy     :     0.008372



                     *******************************
                     * LOEWDIN POPULATION ANALYSIS *
                     *******************************

----------------------
LOEWDIN ATOMIC CHARGES
----------------------
   0 B :    0.001913
   1 B :   -0.001361
   2 B :   -0.002108
   3 B :    0.001982
   4 B :    0.001415
   5 B :   -0.002113
   6 B :   -0.000834
   7 B :    0.001726
   8 B :    0.000461
   9 B :   -0.001277
  10 B :   -0.000973
  11 B :    0.001168

-------------------------------
LOEWDIN REDUCED ORBITAL CHARGES
-------------------------------
  0 B s       :     2.675939  s :     2.675939
      pz      :     0.790370  p :     2.179124
      px      :     0.544473
      py      :     0.844281
      dz2     :     0.040513  d :     0.143024
      dxz     :     0.017787
      dyz     :     0.033088
      dx2y2   :     0.023515
      dxy     :     0.028121

  1 B s       :     2.674965  s :     2.674965
      pz      :     0.791814  p :     2.183670
      px      :     0.547385
      py      :     0.844471
      dz2     :     0.040555  d :     0.142726
      dxz     :     0.017763
      dyz     :     0.032896
      dx2y2   :     0.023383
      dxy     :     0.028128

  2 B s       :     2.674644  s :     2.674644
      pz      :     0.790631  p :     2.184714
      px      :     0.696194
      py      :     0.697889
      dz2     :     0.040595  d :     0.142750
      dxz     :     0.025374
      dyz     :     0.025304
      dx2y2   :     0.030444
      dxy     :     0.021033

  3 B s       :     2.675768  s :     2.675768
      pz      :     0.791935  p :     2.179101
      px      :     0.843603
      py      :     0.543563
      dz2     :     0.040545  d :     0.143148
      dxz     :     0.033134
      dyz     :     0.017728
      dx2y2   :     0.023585
      dxy     :     0.028156

  4 B s       :     2.675506  s :     2.675506
      pz      :     0.791182  p :     2.179915
      px      :     0.844388
      py      :     0.544345
      dz2     :     0.040566  d :     0.143165
      dxz     :     0.033183
      dyz     :     0.017712
      dx2y2   :     0.023516
      dxy     :     0.028189

  5 B s       :     2.674639  s :     2.674639
      pz      :     0.791070  p :     2.184755
      px      :     0.697503
      py      :     0.696182
      dz2     :     0.040587  d :     0.142719
      dxz     :     0.025424
      dyz     :     0.025244
      dx2y2   :     0.030438
      dxy     :     0.021026

  6 B s       :     2.674978  s :     2.674978
      pz      :     0.791701  p :     2.183037
      px      :     0.547660
      py      :     0.843675
      dz2     :     0.040565  d :     0.142819
      dxz     :     0.017800
      dyz     :     0.032925
      dx2y2   :     0.023457
      dxy     :     0.028072

  7 B s       :     2.675611  s :     2.675611
      pz      :     0.790862  p :     2.179528
      px      :     0.543883
      py      :     0.844784
      dz2     :     0.040567  d :     0.143135
      dxz     :     0.017765
      dyz     :     0.033123
      dx2y2   :     0.023476
      dxy     :     0.028205

  8 B s       :     2.675237  s :     2.675237
      pz      :     0.792288  p :     2.181179
      px      :     0.694127
      py      :     0.694764
      dz2     :     0.040568  d :     0.143123
      dxz     :     0.025306
      dyz     :     0.025478
      dx2y2   :     0.030560
      dxy     :     0.021210

  9 B s       :     2.674877  s :     2.674877
      pz      :     0.790637  p :     2.183595
      px      :     0.844382
      py      :     0.548576
      dz2     :     0.040593  d :     0.142805
      dxz     :     0.032885
      dyz     :     0.017865
      dx2y2   :     0.023389
      dxy     :     0.028073

 10 B s       :     2.675093  s :     2.675093
      pz      :     0.790981  p :     2.183093
      px      :     0.845108
      py      :     0.547004
      dz2     :     0.040547  d :     0.142788
      dxz     :     0.032918
      dyz     :     0.017816
      dx2y2   :     0.023344
      dxy     :     0.028163

 11 B s       :     2.675751  s :     2.675751
      pz      :     0.790986  p :     2.180080
      px      :     0.695225
      py      :     0.693870
      dz2     :     0.040504  d :     0.143000
      dxz     :     0.025376
      dyz     :     0.025428
      dx2y2   :     0.030521
      dxy     :     0.021171



                      *****************************
                      * MAYER POPULATION ANALYSIS *
                      *****************************

  NA   - Mulliken gross atomic population
  ZA   - Total nuclear charge
  QA   - Mulliken gross atomic charge
  VA   - Mayer's total valence
  BVA  - Mayer's bonded valence
  FA   - Mayer's free valence

  ATOM       NA         ZA         QA         VA         BVA        FA
  0 B      5.0108     5.0000    -0.0108     4.2385     4.2385    -0.0000
  1 B      4.9896     5.0000     0.0104     4.2144     4.2144    -0.0000
  2 B      4.9883     5.0000     0.0117     4.2137     4.2137    -0.0000
  3 B      5.0121     5.0000    -0.0121     4.2405     4.2405    -0.0000
  4 B      5.0094     5.0000    -0.0094     4.2387     4.2387    -0.0000
  5 B      4.9882     5.0000     0.0118     4.2126     4.2126    -0.0000
  6 B      4.9926     5.0000     0.0074     4.2179     4.2179    -0.0000
  7 B      5.0109     5.0000    -0.0109     4.2401     4.2401    -0.0000
  8 B      5.0068     5.0000    -0.0068     4.2362     4.2362    -0.0000
  9 B      4.9899     5.0000     0.0101     4.2155     4.2155    -0.0000
 10 B      4.9917     5.0000     0.0083     4.2166     4.2166    -0.0000
 11 B      5.0097     5.0000    -0.0097     4.2373     4.2373    -0.0000

  Mayer bond orders larger than 0.100000
B(  0-B ,  1-B ) :   0.7544 B(  0-B ,  2-B ) :   1.0034 B(  0-B ,  3-B ) :   0.1197 
B(  0-B ,  4-B ) :   0.1856 B(  0-B ,  8-B ) :   0.1839 B(  0-B ,  9-B ) :   0.1190 
B(  0-B , 10-B ) :   1.0018 B(  0-B , 11-B ) :   0.7519 B(  1-B ,  2-B ) :   0.7556 
B(  1-B ,  3-B ) :   1.0029 B(  1-B ,  4-B ) :   0.1193 B(  1-B ,  5-B ) :   0.1705 
B(  1-B ,  9-B ) :   0.1721 B(  1-B , 10-B ) :   0.1186 B(  1-B , 11-B ) :   1.0023 
B(  2-B ,  3-B ) :   0.7537 B(  2-B ,  4-B ) :   1.0014 B(  2-B ,  5-B ) :   0.1190 
B(  2-B ,  6-B ) :   0.1719 B(  2-B , 10-B ) :   0.1714 B(  2-B , 11-B ) :   0.1188 
B(  3-B ,  4-B ) :   0.7529 B(  3-B ,  5-B ) :   1.0021 B(  3-B ,  6-B ) :   0.1196 
B(  3-B ,  7-B ) :   0.1861 B(  3-B , 11-B ) :   0.1848 B(  4-B ,  5-B ) :   0.7536 
B(  4-B ,  6-B ) :   1.0036 B(  4-B ,  7-B ) :   0.1196 B(  4-B ,  8-B ) :   0.1835 
B(  5-B ,  6-B ) :   0.7560 B(  5-B ,  7-B ) :   1.0034 B(  5-B ,  8-B ) :   0.1191 
B(  5-B ,  9-B ) :   0.1709 B(  6-B ,  7-B ) :   0.7546 B(  6-B ,  8-B ) :   1.0016 
B(  6-B ,  9-B ) :   0.1193 B(  6-B , 10-B ) :   0.1733 B(  7-B ,  8-B ) :   0.7519 
B(  7-B ,  9-B ) :   1.0011 B(  7-B , 10-B ) :   0.1196 B(  7-B , 11-B ) :   0.1849 
B(  8-B ,  9-B ) :   0.7539 B(  8-B , 10-B ) :   1.0041 B(  8-B , 11-B ) :   0.1194 
B(  9-B , 10-B ) :   0.7567 B(  9-B , 11-B ) :   1.0039 B( 10-B , 11-B ) :   0.7528 


-------
TIMINGS
-------

Total SCF time: 0 days 0 hours 0 min 3 sec 

Total time                  ....       3.323 sec
Sum of individual times     ....       2.838 sec  ( 85.4%)

SCF preparation             ....       0.581 sec  ( 17.5%)
Fock matrix formation       ....       1.775 sec  ( 53.4%)
  Startup                   ....       0.019 sec  (  1.1% of F)
  Split-RI-J                ....       0.666 sec  ( 37.5% of F)
  XC integration            ....       1.376 sec  ( 77.5% of F)
    XC Preparation          ....       0.000 sec  (  0.0% of XC)
    Basis function eval.    ....       0.265 sec  ( 19.3% of XC)
    Density eval.           ....       0.212 sec  ( 15.4% of XC)
    XC-Functional eval.     ....       0.032 sec  (  2.3% of XC)
    XC-Potential eval.      ....       0.273 sec  ( 19.9% of XC)
Diagonalization             ....       0.000 sec  (  0.0%)
Density matrix formation    ....       0.035 sec  (  1.1%)
Total Energy calculation    ....       0.013 sec  (  0.4%)
Population analysis         ....       0.180 sec  (  5.4%)
Orbital Transformation      ....       0.032 sec  (  1.0%)
Orbital Orthonormalization  ....       0.000 sec  (  0.0%)
DIIS solution               ....       0.018 sec  (  0.5%)
SOSCF solution              ....       0.203 sec  (  6.1%)
Finished LeanSCF after   3.5 sec

Maximum memory used throughout the entire LEANSCF-calculation: 12.1 MB


-------------------------------------------------------------------------------
                          DFT DISPERSION CORRECTION                            
                                                                               
                              DFTD3 V3.1  Rev 1                                
                          USING Becke-Johnson damping                          
-------------------------------------------------------------------------------
The BP86 functional is recognized
Active option DFTDOPT                   ...         4   

molecular C6(AA) [au] = 4067.199424 


            DFT-D V3
 parameters
 s6 scaling factor         :     1.0000 
 a1 scaling factor         :     0.3946 
 s8 scaling factor         :     3.2822 
 a2 scaling factor         :     4.8516 
 ad hoc parameters k1-k3   :    16.0000     1.3333    -4.0000 

 Edisp/kcal,au: -22.784546122409  -0.036309481583 
 E6   /kcal   :  -6.462020648 
 E8   /kcal   : -16.322525474 
 % E8         :  71.638580757 

-------------------------   ----------------
Dispersion correction           -0.036309482
-------------------------   ----------------


-------------------------   --------------------
FINAL SINGLE POINT ENERGY      -297.694722390085
-------------------------   --------------------

                                *** OPTIMIZATION RUN DONE ***



           ************************************************************
           *        Program running with 8 parallel MPI-processes     *
           *              working on a common directory               *
           ************************************************************

------------------------------------------------------------------------------
                              ORCA PROPERTY CALCULATIONS
------------------------------------------------------------------------------

GBWName                                 ... hex_prism_nn1.80.gbw
Number of atoms                         ...     12
Number of basis functions               ...    168
Max core memory                         ...   2500 MB

Electric properties:
Dipole moment                           ... YES
Quadrupole moment                       ...  NO
Static polarizability (Dipole/Dipole)   ...  NO
Static polarizability (Dipole/Quad.)    ...  NO
Static polarizability (Quad./Quad.)     ...  NO
Static polarizability (Velocity)        ...  NO
Static hyperpolarizability              ...  NO

Atomic electric properties:
Dipole moment                           ...  NO
Quadrupole moment                       ...  NO
Static polarizability                   ...  NO

Choice of electric origin               ... Center of mass
Position of electric origin             ...    -0.000000     0.000000    -0.000000

General magnetic properties:
Magnetizability                         ...  NO

EPR properties:
g-Tensor (aka g-matrix)                 ...  NO
Zero-Field splitting spin-orbit         ...  NO
Zero-field splitting spin-spin          ...  NO
Hyperfine couplings                     ...  NO (   0 nuclei)
Quadrupole couplings                    ...  NO (   0 nuclei)
Contact density                         ...  NO (   0 nuclei)

NMR properties:
Chemical shifts                         ...  NO (   0 nuclei)
Spin-rotation constants                 ...  NO (   0 nuclei)
Spin-spin couplings                     ...  NO (   0 nuclei,    0 pairs)

Choice of magnetic origin               ... GIAO
Position of magnetic origin             ...     0.000000     0.000000     0.000000

Properties with geometric perturbations:
SCF Hessian                             ...  NO
IR spectrum                             ...  NO
VCD spectrum                            ...  NO
X-ray spectroscopy properties:
SCF XES/XAS/RIXS spectra                ...  NO

SCF SOC stabilization energy            ...  NO
Diagonal Born-Oppenheimer correction    ...  NO

-------------
DIPOLE MOMENT
-------------

Method             : SCF
Type of density    : Electron Density
Multiplicity       :   1
Irrep              :   0
Energy             :  -297.6584129085014752 Eh
Basis              : AO
                                X                 Y                 Z
Electronic contribution:      0.000448990      -0.000330559       0.000187050
Nuclear contribution   :     -0.000000000       0.000000000       0.000000000
                        -----------------------------------------
Total Dipole Moment    :      0.000448990      -0.000330559       0.000187050
                        -----------------------------------------
Magnitude (a.u.)       :      0.000588089
Magnitude (Debye)      :      0.001494803



--------------------
Rotational spectrum 
--------------------
 
Rotational constants in cm-1:             0.068531             0.068501             0.048298 
Rotational constants in MHz :          2054.495989          2053.613792          1447.941651 

Dipole components along the rotational axes: 
x,y,z [a.u.] :     0.000050     0.000556     0.000186 
x,y,z [Debye]:     0.000127     0.001412     0.000473 

 

Dipole moment calculation done in   0.3 sec 

Maximum memory used throughout the entire PROP-calculation: 9.7 MB

--------------------------------
SUGGESTED CITATIONS FOR THIS RUN
--------------------------------

Below you find a list of papers that are relevant to this ORCA run
We neither can nor want to force you to cite these papers, but we appreciate if you do
You receive ORCA, which is the product of decades of hard work by many enthusiastic individuals, for free
The only thing we kindly ask in return is that you cite our papers,
We deeply appreciate it, if you show your appreciation for ORCA by not just citing the generic ORCA reference.

Please note that relegating all ORCA citations to the supporting information does *not* help us.
SI sections are not indexed - citations you put there will not count into any citation statistics
But we need these citations in order to attract the funding resources that allow us to do what we are doing

Therefore, if you are a happy ORCA user, please consider citing a few of the papers listed below in the main body of your paper

In addition to the list printed below, the program has created the file hex_prism_nn1.80.bibtex that contains the list in bibtex format
You can import this file easily into all common literature databanks and citation aid programs

It goes without saying that in many instances, there are alternative algorithms to achieve similar
results as the ones you have gotten from ORCA. It is, of course, also the case that in some instances
ORCA just re-implements algorithms worked out by others. We are fully aware of that and we are also
fully appreciative of our colleagues work. Hence this citation list should not be read as indicating
that the listed papers, which are focused on our own work, are the only ones worth citing. It simply
meant to make it easier for users to cite ORCA specific papers. It is not a substitute for doing your
own literature research and citing the relevant literature in a scientifically appropriate manner.

List of essential papers. We consider these as the minimum necessary citations

  1. Neese, F.
     Software update: the ORCA program system, version 6.0
     WIRES Comput. Molec. Sci. 2025 15(1), e70019
     doi.org/10.1002/wcms.70019

List of papers to cite with high priority. The work reported in these papers was absolutely
necessary for this run to complete.
Our perspective: the developers of density functionals and basis sets usually get cited in chemistry papers
Good! But without the algorithms to do something with them, the functionals or basis sets would not do anything.
Hence, in our opinion, the algorithm design and method developments papers are equally worthy of getting cited

  1. Neese, F.
     An improvement of the resolution of the identity approximation for the formation of the Coulomb matrix
     J. Comp. Chem. 2003 24(14), 1740-1747
     doi.org/10.1002/jcc.10318
  2. Grimme, S.; Antony, J.; Ehrlich, S.; Krieg, H.
     A consistent and accurate ab initio parametrization of density functional dispersion correction (DFT-D) for the 94 elements H-Pu
     J. Chem. Phys. 2010 132 , 154104
     doi.org/10.1063/1.3382344
  3. Grimme, S.; Ehrlich, S.; Goerigk, L.
     Effect of the damping function in dispersion corrected density functional theory
     J. Comput. Chem. 2011 32(7), 1456-1465
     doi.org/10.1002/jcc.21759
  4. Helmich-Paris, B.
     A trust-region augmented Hessian implementation for restricted and unrestricted Hartree–Fock and Kohn–Sham methods
     J. Chem. Phys. 2021 154 , 164104
     doi.org/10.1063/5.0040798
  5. Neese, F.
     The SHARK Integral Generation and Digestion System
     J. Comp. Chem. 2022 44(3), 381
     doi.org/10.1002/jcc.26942

List of suggested additional citations. These are papers that are important in the 'surrounding' of 
of this run, or papers that preceded the highly important papers. If you like your results we are grateful for a citation.

  1. Neese, F.
     The ORCA program system
     WIRES Comput. Molec. Sci. 2012 2(1), 73-78
     doi.org/10.1002/wcms.81
  2. Neese, F.
     Software update: the ORCA program system, version 4.0
     WIRES Comput. Molec. Sci. 2018 8(1), 1-6
     doi.org/10.1002/wcms.1327
  3. Neese, F.; Wennmohs, F.; Becker, U.; Riplinger, C.
     The ORCA quantum chemistry program package
     J. Chem. Phys. 2020 152(22), 224108
     doi.org/10.1063/5.0004608
  4. Neese, F.
     Software update: The ORCA program system—Version 5.0
     WIRES Comput. Molec. Sci. 2022 12(1), e1606
     doi.org/10.1002/wcms.1606

List of optional additional citations

  1. Neese, F.
     Approximate second-order SCF convergence for spin unrestricted wavefunctions
     Chem. Phys. Lett. 2000 325(1-3), 93-98
     doi.org/10.1016/s0009-2614(00)00662-x

Timings for individual modules:

Sum of individual times          ...      591.504 sec (=   9.858 min)
Startup calculation              ...       75.114 sec (=   1.252 min)  12.7 %
SCF iterations                   ...      402.176 sec (=   6.703 min)  68.0 %
Property calculations            ...        1.138 sec (=   0.019 min)   0.2 %
SCF Gradient evaluation          ...      110.513 sec (=   1.842 min)  18.7 %
Geometry relaxation              ...        2.562 sec (=   0.043 min)   0.4 %
                             ****ORCA TERMINATED NORMALLY****
TOTAL RUN TIME: 0 days 0 hours 10 minutes 29 seconds 339 msec
