
                                 *****************
                                 * O   R   C   A *
                                 *****************

                                            #,                                       
                                            ###                                      
                                            ####                                     
                                            #####                                    
                                            ######                                   
                                           ########,                                 
                                     ,,################,,,,,                         
                               ,,#################################,,                 
                          ,,##########################################,,             
                       ,#########################################, ''#####,          
                    ,#############################################,,   '####,        
                  ,##################################################,,,,####,       
                ,###########''''           ''''###############################       
              ,#####''   ,,,,##########,,,,          '''####'''          '####       
            ,##' ,,,,###########################,,,                        '##       
           ' ,,###''''                  '''############,,,                           
         ,,##''                                '''############,,,,        ,,,,,,###''
      ,#''                                            '''#######################'''  
     '                                                          ''''####''''         
             ,#######,   #######,   ,#######,      ##                                
            ,#'     '#,  ##    ##  ,#'     '#,    #''#        ,####,    ,#,          
            ##       ##  ##   ,#'  ##            #'  '#       #'       ,# #          
            ##       ##  #######   ##           ,######,      #####,      #          
            '#,     ,#'  ##    ##  '#,     ,#' ,#      #,     #,   #      #          
             '#######'   ##     ##  '#######'  #'      '#     '####' #    #          



                #########################################################
                #                        -***-                          #
                #          Department of theory and spectroscopy        #
                #                                                       #
                #                      Frank Neese                      #
                #                                                       #
                #     Directorship, Architecture, Infrastructure        #
                #                    SHARK, DRIVERS                     #
                #        Core code/Algorithms in most modules           #
                #                                                       #
                #        Max Planck Institute fuer Kohlenforschung      #
                #                Kaiser Wilhelm Platz 1                 #
                #                 D-45470 Muelheim/Ruhr                 #
                #                      Germany                          #
                #                                                       #
                #                  All rights reserved                  #
                #                        -***-                          #
                #########################################################


                         Program Version 6.1.1  -  RELEASE   -
                                (GIT: $487d211c$)
                          ($2025-11-21 10:33:24 +0100$)
                                                                         
                                  - NO-DMRG VERSION -                    
                                                                         


 With contributions from (in alphabetic order):
[Max-Planck-Institut fuer Kohlenforschung]                               
  Daniel Aravena         : Magnetic Suceptibility                        
  Michael Atanasov       : Ab Initio Ligand Field Theory (pilot matlab implementation)
  Alexander A. Auer      : GIAO ZORA, VPT2 properties, NMR spectrum      
  Ute Becker             : All parallelization in ORCA, NUMFREQ, NUMCALC 
  Giovanni Bistoni       : ED, misc. LED, open-shell LED, HFLD           
  Dmytro Bykov           : pre 5.0 version of the SCF Hessian            
  Marcos Casanova-Páez   : Triplet and SCS-CIS(D). UHF-(DLPNO)-IP/EA/STEOM-CCSD. UHF-CVS-IP/STEOM-CCSD   
  Vijay G. Chilkuri      : MRCI spin determinant printing, contributions to CSF-ICE 
  Pauline Colinet        : FMM embedding                                 
  Dipayan Datta          : RHF DLPNO-CCSD density                        
  Achintya Kumar Dutta   : EOM-CC, STEOM-CC                              
  Nicolas Foglia         : Exact transition moments, OPA infrastructure, MCD improvements    
  Dmitry Ganyushin       : Spin-Orbit,Spin-Spin,Magnetic field MRCI      
  Miquel Garcia-Rates    : C-PCM and meta-GGA Hessian, CCSD/C-PCM, Gaussian charge scheme 
  Tiago L. C. Gouveia    : GS-ROHF, GS-ROCIS                             
  Yang Guo               : DLPNO-NEVPT2, F12-NEVPT2, CIM, IAO-localization        
  Andreas Hansen         : Spin unrestricted coupled pair/coupled cluster methods 
  Ingolf Harden          : AUTO-CI MPn and infrastructure                
  Benjamin Helmich-Paris : MC-RPA, TRAH-(SCF,CASSCF), AVAS, COSX integrals, SCF dyn. polar., MC-PDFT, srDFT 
  Lee Huntington         : MR-EOM, pCC                                   
  Robert Izsak           : Overlap fitted RIJCOSX, COSX-SCS-MP3, EOM     
  Riya Kayal             : Wick's Theorem for AUTO-CI, AUTO-CI UHF-CCSDT 
  Emily Kempfer          : AUTO-CI RHF CISDT and CCSDT, approximate NEVPT4
  Christian Kollmar      : KDIIS, OOCD, Brueckner-CCSD(T), CCSD density, CASPT2, CASPT2-K, improved NEVPT2 
  Axel Koslowski         : Symmetry handling                             
  Simone Kossmann        : meta-GGA functionals, TD-DFT gradient, OOMP2, (MP2 Hessian; deprecated post 5.0) 
  Lucas Lang             : DCDCAS, Hyperfine gauge corrections, ICE-SOC+SSC
  Marvin Lechner         : AUTO-CI (C++ implementation), FIC-MRCC        
  Spencer Leger          : CASSCF response                               
  Dagmar Lenk            : GEPOL surface, SMD, ORCA-2-JSON               
  Dimitrios Liakos       : Extrapolation schemes; Compound Job, Property file
  Dimitrios Manganas     : Further ROCIS development; embedding schemes. LFT, Crystal Embedding 
  Dimitrios Pantazis     : SARC Basis sets                               
  Anastasios Papadopoulos: AUTO-CI, single reference methods and gradients 
  Taras Petrenko         : pre 6.0 DFT Hessian and TD-DFT gradient,  ECA, NRVS 
  Petra Pikulova         : Analytic Raman intensities                    
  Peter Pinski           : DLPNO-MP2, DLPNO-MP2 Gradient                 
  Shashank Vittal Rao    : ES-AILFT, MagRelax                            
  Christoph Reimann      : Effective Core Potentials                     
  Marius Retegan         : Local ZFS, SOC                                
  Christoph Riplinger    : Optimizer, TS searches, QM/MM, DLPNO-CCSD(T), (RO)-DLPNO pert. Triples 
  Michael Roemelt        : Original ROCIS implementation, recursive CI coupling coefficients
  Masaaki Saitow         : Open-shell DLPNO-CCSD energy and density      
  Barbara Sandhoefer     : DKH picture change effects                    
  Yorick L. A. Schmerwitz: GMF and freeze-and-release deltaSCF, NEB S-IDPP initial path                    
  Kantharuban Sivalingam : CASSCF convergence/infrastructure, NEVPT2, NEVPT3, NEVPT4(SD), FIC-MRCI and CEPA variants
  Bernardo de Souza      : ESD, SOC TD-DFT                               
  Georgi L. Stoychev     : AutoAux, RI-MP2 NMR, DLPNO-MP2 response, X2C  
  Van Anh Tran           : RI-MP2 g-tensors                              
  Willem Van den Heuvel  : Paramagnetic NMR                              
  Zikuan Wang            : NOTCH, Electric field optimization            
  Frank Wennmohs         : Technical directorship and infrastructure     
  Hang Xu                : AUTO-CI-Response properties                   
                                                                         
[FACCTs GmbH]                                                            
  Markus Bursch, Nicolas Foglia, Miquel Garcia-Rates, Ingolf Harden, Hagen Neugebauer, Anastasios Papadopoulos, 
  Christoph Riplinger, Bernardo de Souza, Georgi L. Stoychev                                                    
                                                                 
  APM, various basis sets, CI-OPT, improved COSX, DLPNO-Multilevel,           
  DOCKER, DRACO, updates on ESD, Fragmentator, GOAT, IRC, LR-CPCM, L-BFGS, MBIS, meta-GGA TD-DFT gradient, ML-optimized integration grids, 
  MM, NACMEs, nearIR, NEB, NEB-TS, NL-DFT gradient (VV10), 2- and 3-layer-ONIOM, interface openCOSMO-RS, QMMM,   
  Crystal-QMMM, RESP, rigid body optimization, SF, symmetry and pop. for TD-DFT, various functionals, SOLVATOR                                   
                                                                         
[Other institutions]                                                     
  V. Asgeirsson          : NEB                                           
  Christoph Bannwarth    : sTDA-DFT, sTD-DFT, PBEh-3c, B97-3c, D3        
  Giovanni Bistoni       : ETS/NOCV, ADLD/ADEX, COVALED                  
  Martin Brehm           : Molecular dynamics                            
  Ronald Cardenas        : ETS/NOCV                                      
  Martina Colucci        : COVALED                                       
  Sebastian Ehlert       : rSCAN, r2SCAN, r2SCAN-3c, D4, dhf basis sets  
  Marvin Friede          : D4 for Fr, Ra, Ac-Lr                          
  Lars Goerigk           : TD-DFT with DH, B97 family of functionals     
  Stefan Grimme          : VdW corrections, initial TS optimization, DFT functionals, gCP, sTDA/sTD-DF 
  Waldemar Hujo          : DFT-NL                                        
  H. Jonsson             : NEB                                           
  Holger Kruse           : gCP                                           
  Marcel Mueller         : wB97X-3c, vDZP basis set                      
  Hagen Neugebauer       : wr2SCAN, Native XTB                           
  Gianluca Regni         : ADLD/ADEX                                     
  Tobias Risthaus        : pre 6.0 range-separated hybrid DFT and stability analysis
  Lukas Wittmann         : regularized MP2, r2SCAN double-hybrids, wr2SCAN        
                                                                         
We gratefully acknowledge several colleagues who have allowed us to      
interface, adapt or use parts of their codes:                            
  Ed Valeev, F. Pavosevic, A. Kumar             : LibInt (2-el integral package), F12 methods 
  Garnet Chan, S. Sharma, J. Yang, R. Olivares  : DMRG                   
  Ulf Ekstrom                                   : XCFun DFT Library      
  Mihaly Kallay                                 : mrcc  (arbitrary order and MRCC methods)
  Frank Weinhold                                : gennbo (NPA and NBO analysis)           
  Simon Mueller                                 : openCOSMO-RS                            
  Christopher J. Cramer and Donald G. Truhlar   : smd solvation model                     
  S Lehtola, MJT Oliveira, MAL Marques          : LibXC Library                           
  Liviu Ungur et al                             : ANISO software                          


 Your calculation uses the libint2 library for the computation of 2-el integrals
 For citations please refer to: http://libint.valeyev.net

 Your ORCA version has been built with support for libXC version: 7.0.0
 For citations please refer to: https://libxc.gitlab.io

 This ORCA versions uses:
   CBLAS   interface :  Fast vector & matrix operations
   LAPACKE interface :  Fast linear algebra routines
   SCALAPACK package :  Parallel linear algebra routines
   Shared memory     :  Shared parallel matrices
   BLAS/LAPACK       :  OpenBLAS 0.3.29  USE64BITINT DYNAMIC_ARCH NO_AFFINITY Zen SINGLE_THREADED
        Core in use  :  Zen
   Copyright (c) 2011-2014, The OpenBLAS Project


  ***********************************
  * Starting time: Thu Apr 23 18:05:56 2026
  * Host name:     vmi3233575
  * Process ID:    1387386
  * Working dir.:  /root/b12_scan/jobs/icosahedron_nn2.00_perturb2
  ***********************************

NOTE: MaxCore=2500 MB was set to SCF,MP2,MDCI,CIPSI,MRCI,RASCI and CIS
      => If you want to overwrite this, your respective input block should be placed after the MaxCore statement
Your calculation utilizes the atom-pairwise dispersion correction
with the Becke-Johnson damping scheme (D3BJ)


================================================================================

----- Orbital basis set information -----
Your calculation utilizes the basis: def2-SVP
   F. Weigend and R. Ahlrichs, Phys. Chem. Chem. Phys. 7, 3297 (2005).

----- AuxJ basis set information -----
Your calculation utilizes the auxiliary basis: def2/J
   H-Rn: F. Weigend, Phys. Chem. Chem. Phys. 8, 1057 (2006).
   Fr-Lr: K. Eichkorn, F. Weigend, O. Treutler, R. Ahlrichs; Theor. Chem. Acc. 97, 119 (1997).

================================================================================
                                        WARNINGS
                       Please study these warnings very carefully!
================================================================================


WARNING: Geometry Optimization
  ===> : Switching off AutoStart
         For restart on a previous wavefunction, please use MOREAD

================================================================================
                                       INPUT FILE
================================================================================
NAME = icosahedron_nn2.00_perturb2.inp
|  1> ! BP86 def2-SVP def2/J RI Opt TightSCF D3BJ
|  2> ! SlowConv
|  3> 
|  4> %pal nprocs 8 end
|  5> %maxcore 2500
|  6> 
|  7> %geom
|  8>   MaxIter 300
|  9> end
| 10> 
| 11> * xyz 0 1
| 12> B      0.02835801     -1.07841227     -1.67999352
| 13> B     -1.36622011     -1.34807788      0.17162488
| 14> B     -1.66684741      0.11607099     -0.95781840
| 15> B     -0.08307343     -0.85336488      1.57145051
| 16> B     -1.04932359      1.49921198      0.06824371
| 17> B      1.60315428      0.08179331     -1.09107785
| 18> B      0.01902418      0.86615889     -1.49181424
| 19> B      1.02820526     -1.56844834      0.06157559
| 20> B     -1.76964761      0.11747715      1.30850542
| 21> B     -0.24576638      0.74058828      1.39230928
| 22> B      1.12621883      1.63734134      0.16175137
| 23> B      1.72639862      0.03158577      1.04260572
| 24> *
| 25> 
| 26>                          ****END OF INPUT****
================================================================================

                       *****************************
                       * Geometry Optimization Run *
                       *****************************

Geometry optimization settings:
Update method            Update   .... BFGS
Choice of coordinates    CoordSys .... (2022) Redundant Internals
Initial Hessian          InHess   .... Almloef's Model
Max. no of cycles        MaxIter  .... 300

Convergence Tolerances:
Energy Change            TolE     ....  5.0000e-06 Eh
Max. Gradient            TolMAXG  ....  3.0000e-04 Eh/bohr
RMS Gradient             TolRMSG  ....  1.0000e-04 Eh/bohr
Max. Displacement        TolMAXD  ....  4.0000e-03 bohr
RMS Displacement         TolRMSD  ....  2.0000e-03 bohr
Strict Convergence                .... False

------------------------------------------------------------------------------
                        ORCA OPTIMIZATION COORDINATE SETUP
------------------------------------------------------------------------------

The optimization will be done in redundant internal coordinates (2022)
Making redundant internal coordinates   ...  (2022 redundants) done
Evaluating the initial hessian          ...  (Almloef) done
Evaluating the coordinates              ...  done
Calculating the B-matrix                .... done
Calculating the G-matrix                .... done
The number of degrees of freedom        ....  204

    -----------------------------------------------------------------
                    Redundant Internal Coordinates


    -----------------------------------------------------------------
         Definition                    Initial Value    Approx d2E/dq
    -----------------------------------------------------------------
      1. B(B   2,B   1)                  1.8734         0.141934   
      2. B(B   3,B   1)                  1.9623         0.102392   
      3. B(B   4,B   2)                  1.8295         0.166769   
      4. B(B   5,B   0)                  2.0428         0.076196   
      5. B(B   6,B   2)                  1.9209         0.119212   
      6. B(B   6,B   4)                  1.9940         0.091155   
      7. B(B   6,B   0)                  1.9537         0.105697   
      8. B(B   6,B   5)                  1.8125         0.177519   
      9. B(B   7,B   5)                  2.0934         0.063254   
     10. B(B   7,B   3)                  2.0065         0.087056   
     11. B(B   7,B   0)                  2.0671         0.069680   
     12. B(B   8,B   4)                  1.9916         0.091965   
     13. B(B   8,B   3)                  1.9637         0.101867   
     14. B(B   8,B   1)                  1.8982         0.129598   
     15. B(B   9,B   3)                  1.6122         0.370543   
     16. B(B   9,B   8)                  1.6485         0.324322   
     17. B(B   9,B   4)                  1.7246         0.245180   
     18. B(B  10,B   9)                  2.0496         0.074311   
     19. B(B  10,B   5)                  2.0535         0.073254   
     20. B(B  11,B  10)                  1.9273         0.116442   
     21. B(B  11,B   7)                  2.0025         0.088343   
     22. B(B  11,B   3)                  2.0825         0.065835   
     23. A(B   5,B   0,B   6)           53.8858         0.239108   
     24. A(B   6,B   0,B   7)           99.0397         0.236101   
     25. A(B   5,B   0,B   7)           61.2402         0.225599   
     26. A(B   2,B   1,B   8)           73.9526         0.269963   
     27. A(B   2,B   1,B   3)          109.7527         0.260565   
     28. A(B   3,B   1,B   8)           61.1237         0.257070   
     29. A(B   1,B   2,B   4)          101.4533         0.280592   
     30. A(B   4,B   2,B   6)           64.1810         0.273174   
     31. A(B   1,B   2,B   6)          109.3862         0.266574   
     32. A(B   7,B   3,B  11)           58.6095         0.227985   
     33. A(B   1,B   3,B  11)          119.6123         0.233183   
     34. A(B   7,B   3,B   8)          123.4431         0.242418   
     35. A(B   8,B   3,B   9)           53.8191         0.301936   
     36. A(B   1,B   3,B   9)           95.9695         0.302184   
     37. A(B   1,B   3,B   8)           57.8265         0.248156   
     38. A(B   8,B   3,B  11)          120.1430         0.233016   
     39. A(B   9,B   3,B  11)           68.8593         0.281904   
     40. A(B   7,B   3,B   9)          108.9428         0.294497   
     41. A(B   1,B   3,B   7)           74.6635         0.242596   
     42. A(B   2,B   4,B   6)           60.1347         0.262321   
     43. A(B   6,B   4,B   8)          117.4362         0.240477   
     44. A(B   2,B   4,B   8)           72.7026         0.262669   
     45. A(B   8,B   4,B   9)           52.0642         0.278498   
     46. A(B   6,B   4,B   9)          102.2030         0.278119   
     47. A(B   2,B   4,B   9)          104.7906         0.305825   
     48. A(B   7,B   5,B  10)          101.3870         0.221455   
     49. A(B   6,B   5,B  10)           66.6770         0.256302   
     50. A(B   0,B   5,B  10)          115.2822         0.227155   
     51. A(B   0,B   5,B   6)           60.5459         0.257800   
     52. A(B   6,B   5,B   7)          102.8753         0.250835   
     53. A(B   0,B   5,B   7)           59.9530         0.222640   
     54. A(B   4,B   6,B   5)          115.6379         0.264789   
     55. A(B   2,B   6,B   5)          122.4525         0.275796   
     56. A(B   0,B   6,B   2)           69.0414         0.255112   
     57. A(B   0,B   6,B   5)           65.5683         0.270778   
     58. A(B   2,B   6,B   4)           55.6843         0.249640   
     59. A(B   0,B   6,B   4)          113.1989         0.245324   
     60. A(B   5,B   7,B  11)           62.8787         0.227190   
     61. A(B   3,B   7,B  11)           62.5932         0.237550   
     62. A(B   0,B   7,B  11)          113.0777         0.230250   
     63. A(B   3,B   7,B   5)          106.5887         0.226732   
     64. A(B   0,B   7,B   5)           58.8067         0.219963   
     65. A(B   0,B   7,B   3)          106.3566         0.229782   
     66. A(B   3,B   8,B   4)           96.6469         0.244334   
     67. A(B   1,B   8,B   4)           94.9224         0.253034   
     68. A(B   1,B   8,B   3)           61.0498         0.256875   
     69. A(B   4,B   8,B   9)           55.6020         0.290884   
     70. A(B   3,B   8,B   9)           52.1294         0.295611   
     71. A(B   1,B   8,B   9)           97.2280         0.307182   
     72. A(B   8,B   9,B  10)          138.9084         0.281375   
     73. A(B   4,B   9,B  10)           70.0310         0.269572   
     74. A(B   3,B   9,B  10)          115.5777         0.287265   
     75. A(B   4,B   9,B   8)           72.3338         0.341052   
     76. A(B   3,B   9,B   8)           74.0514         0.365748   
     77. A(B   3,B   9,B   4)          124.5564         0.348768   
     78. A(B   9,B  10,B  11)           64.5022         0.241567   
     79. A(B   5,B  10,B  11)           64.8735         0.241073   
     80. A(B   5,B  10,B   9)          100.9724         0.226374   
     81. A(B   7,B  11,B  10)          109.4648         0.247658   
     82. A(B   3,B  11,B  10)          101.5092         0.237441   
     83. A(B   3,B  11,B   7)           58.7972         0.228447   
     84. D(B   4,B   2,B   1,B   8)     32.6602         0.010000   
     85. D(B   4,B   2,B   1,B   3)    -17.7561         0.010000   
     86. D(B   6,B   2,B   1,B   3)     48.6785         0.010000   
     87. D(B   6,B   2,B   1,B   8)     99.0948         0.010000   
     88. D(B   8,B   3,B   1,B   2)     57.7609         0.010000   
     89. D(B   7,B   3,B   1,B   2)    -90.1974         0.010000   
     90. D(B  11,B   3,B   1,B   2)    -51.1949         0.010000   
     91. D(B   9,B   3,B   1,B   8)    -39.9130         0.010000   
     92. D(B   7,B   3,B   1,B   8)   -147.9583         0.010000   
     93. D(B   9,B   3,B   1,B   2)     17.8478         0.010000   
     94. D(B   9,B   4,B   2,B   6)    -95.7670         0.010000   
     95. D(B   6,B   4,B   2,B   1)    106.1535         0.010000   
     96. D(B   8,B   4,B   2,B   6)   -137.3332         0.010000   
     97. D(B   8,B   4,B   2,B   1)    -31.1798         0.010000   
     98. D(B   9,B   4,B   2,B   1)     10.3865         0.010000   
     99. D(B  10,B   5,B   0,B   7)    -88.7989         0.010000   
    100. D(B   7,B   5,B   0,B   6)    128.4835         0.010000   
    101. D(B  10,B   5,B   0,B   6)     39.6846         0.010000   
    102. D(B   6,B   5,B   0,B   7)   -128.4835         0.010000   
    103. D(B   4,B   6,B   2,B   1)    -93.6463         0.010000   
    104. D(B   5,B   6,B   2,B   1)      7.1182         0.010000   
    105. D(B   0,B   6,B   2,B   1)     46.9031         0.010000   
    106. D(B   0,B   6,B   2,B   4)    140.5493         0.010000   
    107. D(B   4,B   6,B   0,B   7)    -64.7892         0.010000   
    108. D(B   2,B   6,B   0,B   7)    -99.6081         0.010000   
    109. D(B   5,B   6,B   2,B   4)    100.7645         0.010000   
    110. D(B   4,B   6,B   5,B   0)    105.1822         0.010000   
    111. D(B   4,B   6,B   0,B   5)   -108.8049         0.010000   
    112. D(B   5,B   6,B   0,B   7)     44.0158         0.010000   
    113. D(B   0,B   6,B   4,B   8)      6.6012         0.010000   
    114. D(B   2,B   6,B   0,B   5)   -143.6238         0.010000   
    115. D(B   2,B   6,B   5,B  10)   -100.0187         0.010000   
    116. D(B   2,B   6,B   5,B   7)     -3.0112         0.010000   
    117. D(B   2,B   6,B   5,B   0)     41.0214         0.010000   
    118. D(B   0,B   6,B   5,B   7)    -44.0327         0.010000   
    119. D(B   5,B   6,B   4,B   2)   -113.1443         0.010000   
    120. D(B   0,B   6,B   5,B  10)   -141.0402         0.010000   
    121. D(B   2,B   6,B   4,B   9)    100.1954         0.010000   
    122. D(B   2,B   6,B   4,B   8)     46.8099         0.010000   
    123. D(B   0,B   6,B   4,B   9)     59.9867         0.010000   
    124. D(B   0,B   6,B   4,B   2)    -40.2087         0.010000   
    125. D(B   3,B   7,B   5,B   6)    -55.0271         0.010000   
    126. D(B   3,B   7,B   5,B   0)    -99.3892         0.010000   
    127. D(B   3,B   7,B   5,B  10)     13.3656         0.010000   
    128. D(B   0,B   7,B   5,B   6)     44.3621         0.010000   
    129. D(B   5,B   7,B   3,B   8)     61.2287         0.010000   
    130. D(B   5,B   7,B   3,B   1)     93.7878         0.010000   
    131. D(B   0,B   7,B   3,B  11)   -107.9378         0.010000   
    132. D(B   5,B   7,B   3,B   9)      2.6483         0.010000   
    133. D(B   0,B   7,B   3,B   9)    -58.9414         0.010000   
    134. D(B  11,B   7,B   5,B   0)   -145.5836         0.010000   
    135. D(B   0,B   7,B   3,B   8)     -0.3610         0.010000   
    136. D(B  11,B   7,B   0,B   6)     -6.6671         0.010000   
    137. D(B   0,B   7,B   5,B  10)    112.7548         0.010000   
    138. D(B   5,B   7,B   0,B   6)    -39.8159         0.010000   
    139. D(B   3,B   7,B   0,B   6)     59.9796         0.010000   
    140. D(B  11,B   7,B   0,B   5)     33.1487         0.010000   
    141. D(B   3,B   7,B   0,B   5)     99.7954         0.010000   
    142. D(B   0,B   7,B   3,B   1)     32.1982         0.010000   
    143. D(B   9,B   8,B   1,B   2)    -85.0875         0.010000   
    144. D(B   4,B   8,B   1,B   3)     94.8834         0.010000   
    145. D(B   4,B   8,B   1,B   2)    -29.1882         0.010000   
    146. D(B   3,B   8,B   1,B   2)   -124.0716         0.010000   
    147. D(B   3,B   8,B   4,B   9)    -34.0245         0.010000   
    148. D(B   3,B   8,B   4,B   6)     50.0808         0.010000   
    149. D(B   1,B   8,B   4,B   9)    -95.3984         0.010000   
    150. D(B   1,B   8,B   4,B   6)    -11.2931         0.010000   
    151. D(B   1,B   8,B   4,B   2)     30.1757         0.010000   
    152. D(B   4,B   8,B   3,B  11)     16.0813         0.010000   
    153. D(B   4,B   8,B   3,B   9)     35.7943         0.010000   
    154. D(B   4,B   8,B   3,B   7)    -54.1448         0.010000   
    155. D(B   4,B   8,B   3,B   1)    -91.9634         0.010000   
    156. D(B   1,B   8,B   3,B  11)    108.0446         0.010000   
    157. D(B   3,B   8,B   4,B   2)     91.5495         0.010000   
    158. D(B   1,B   8,B   3,B   9)    127.7577         0.010000   
    159. D(B   1,B   8,B   3,B   7)     37.8185         0.010000   
    160. D(B   9,B   8,B   1,B   3)     38.9841         0.010000   
    161. D(B  10,B   9,B   8,B   3)    110.8226         0.010000   
    162. D(B   4,B   9,B   8,B   3)    135.2461         0.010000   
    163. D(B   4,B   9,B   8,B   1)     91.0309         0.010000   
    164. D(B   3,B   9,B   8,B   4)   -135.2461         0.010000   
    165. D(B  10,B   9,B   4,B   2)    109.7569         0.010000   
    166. D(B   8,B   9,B   4,B   6)   -115.4126         0.010000   
    167. D(B   8,B   9,B   4,B   2)    -53.4361         0.010000   
    168. D(B   3,B   9,B   4,B   8)     55.2842         0.010000   
    169. D(B   3,B   9,B   4,B   6)    -60.1285         0.010000   
    170. D(B   3,B   9,B   4,B   2)      1.8481         0.010000   
    171. D(B   8,B   9,B   3,B  11)    161.7752         0.010000   
    172. D(B   8,B   9,B   3,B   7)    118.0898         0.010000   
    173. D(B   3,B   9,B   8,B   1)    -44.2152         0.010000   
    174. D(B   8,B   9,B   3,B   1)     42.2874         0.010000   
    175. D(B   4,B   9,B   3,B  11)    107.2297         0.010000   
    176. D(B   4,B   9,B   3,B   8)    -54.5455         0.010000   
    177. D(B  10,B   9,B   8,B   1)     66.6074         0.010000   
    178. D(B   4,B   9,B   3,B   7)     63.5443         0.010000   
    179. D(B   4,B   9,B   3,B   1)    -12.2581         0.010000   
    180. D(B  11,B  10,B   9,B   4)   -147.4960         0.010000   
    181. D(B  11,B  10,B   9,B   3)    -27.8163         0.010000   
    182. D(B   5,B  10,B   9,B   8)    -67.5796         0.010000   
    183. D(B   5,B  10,B   9,B   4)    -92.3624         0.010000   
    184. D(B   5,B  10,B   9,B   3)     27.3172         0.010000   
    185. D(B  11,B  10,B   5,B   6)    132.8714         0.010000   
    186. D(B  11,B  10,B   5,B   0)     95.6062         0.010000   
    187. D(B   9,B  10,B   5,B   7)    -21.2587         0.010000   
    188. D(B   9,B  10,B   5,B   6)     77.9887         0.010000   
    189. D(B   9,B  10,B   5,B   0)     40.7236         0.010000   
    190. D(B   7,B  11,B  10,B   9)     80.1621         0.010000   
    191. D(B   7,B  11,B  10,B   5)    -37.0055         0.010000   
    192. D(B   3,B  11,B  10,B   5)    -97.7449         0.010000   
    193. D(B  10,B  11,B   7,B   5)     36.9109         0.010000   
    194. D(B  10,B  11,B   7,B   3)    -91.9108         0.010000   
    195. D(B  10,B  11,B   7,B   0)      5.2059         0.010000   
    196. D(B   3,B  11,B   7,B   5)    128.8217         0.010000   
    197. D(B   3,B  11,B   7,B   0)     97.1167         0.010000   
    198. D(B  10,B  11,B   3,B   8)     -7.1764         0.010000   
    199. D(B  10,B  11,B   3,B   7)    105.9173         0.010000   
    200. D(B  10,B  11,B   3,B   1)     60.6003         0.010000   
    201. D(B   3,B  11,B  10,B   9)     19.4227         0.010000   
    202. D(B   7,B  11,B   3,B   9)   -130.0659         0.010000   
    203. D(B   7,B  11,B   3,B   8)   -113.0937         0.010000   
    204. D(B   7,B  11,B   3,B   1)    -45.3170         0.010000   
    -----------------------------------------------------------------

Number of atoms                         .... 12
Number of degrees of freedom            .... 204


         *************************************************************
         *                GEOMETRY OPTIMIZATION CYCLE   1            *
         *************************************************************
---------------------------------
CARTESIAN COORDINATES (ANGSTROEM)
---------------------------------
  B      0.028358   -1.078412   -1.679994
  B     -1.366220   -1.348078    0.171625
  B     -1.666847    0.116071   -0.957818
  B     -0.083073   -0.853365    1.571451
  B     -1.049324    1.499212    0.068244
  B      1.603154    0.081793   -1.091078
  B      0.019024    0.866159   -1.491814
  B      1.028205   -1.568448    0.061576
  B     -1.769648    0.117477    1.308505
  B     -0.245766    0.740588    1.392309
  B      1.126219    1.637341    0.161751
  B      1.726399    0.031586    1.042606

----------------------------
CARTESIAN COORDINATES (A.U.)
----------------------------
  NO LB      ZA    FRAG     MASS         X           Y           Z
   0 B     5.0000    0    10.810    0.053589   -2.037904   -3.174728
   1 B     5.0000    0    10.810   -2.581782   -2.547498    0.324324
   2 B     5.0000    0    10.810   -3.149885    0.219342   -1.810014
   3 B     5.0000    0    10.810   -0.156986   -1.612626    2.969611
   4 B     5.0000    0    10.810   -1.982934    2.833100    0.128962
   5 B     5.0000    0    10.810    3.029523    0.154567   -2.061838
   6 B     5.0000    0    10.810    0.035950    1.636803   -2.819120
   7 B     5.0000    0    10.810    1.943026   -2.963938    0.116361
   8 B     5.0000    0    10.810   -3.344149    0.222000    2.472717
   9 B     5.0000    0    10.810   -0.464431    1.399509    2.631083
  10 B     5.0000    0    10.810    2.128245    3.094127    0.305666
  11 B     5.0000    0    10.810    3.262421    0.059688    1.970239

--------------------------------
INTERNAL COORDINATES (ANGSTROEM)
--------------------------------
 B      0   0   0     0.000000000000     0.00000000     0.00000000
 B      1   0   0     2.333679149587     0.00000000     0.00000000
 B      2   1   0     1.873432894385    61.78672783     0.00000000
 B      2   1   3     1.962324679855    98.40138636   252.03413100
 B      3   2   1     1.829540412252   101.45331420   253.18807113
 B      1   2   3     2.042763311361   107.31214831    89.61281726
 B      6   1   2     1.812536121319    60.54589578   280.43249161
 B      4   2   1     2.006491204979    74.66350636   332.75532289
 B      2   1   3     1.898184041642   120.86397501   313.32083923
 B      4   2   1     1.612218115684    95.96954851    80.80058330
 B     10   4   2     2.049580990579   115.57773416   265.21561080
 B     11  10   4     1.927322265949    64.50217821   332.18369789

---------------------------
INTERNAL COORDINATES (A.U.)
---------------------------
 B      0   0   0     0.000000000000     0.00000000     0.00000000
 B      1   0   0     4.410014477162     0.00000000     0.00000000
 B      2   1   0     3.540275100668    61.78672783     0.00000000
 B      2   1   3     3.708256230761    98.40138636   252.03413100
 B      3   2   1     3.457330330098   101.45331420   253.18807113
 B      1   2   3     3.860263214893   107.31214831    89.61281726
 B      6   1   2     3.425196877132    60.54589578   280.43249161
 B      4   2   1     3.791718867532    74.66350636   332.75532289
 B      2   1   3     3.587047990484   120.86397501   313.32083923
 B      4   2   1     3.046650706789    95.96954851    80.80058330
 B     10   4   2     3.873146761485   115.57773416   265.21561080
 B     11  10   4     3.642111254453    64.50217821   332.18369789

---------------------
BASIS SET INFORMATION
---------------------
There are 1 groups of distinct atoms

 Group   1 Type B   : 7s4p1d contracted to 3s2p1d pattern {511/31/1}

Atom   0B    basis set group =>   1
Atom   1B    basis set group =>   1
Atom   2B    basis set group =>   1
Atom   3B    basis set group =>   1
Atom   4B    basis set group =>   1
Atom   5B    basis set group =>   1
Atom   6B    basis set group =>   1
Atom   7B    basis set group =>   1
Atom   8B    basis set group =>   1
Atom   9B    basis set group =>   1
Atom  10B    basis set group =>   1
Atom  11B    basis set group =>   1
---------------------------------
AUXILIARY/J BASIS SET INFORMATION
---------------------------------
There are 1 groups of distinct atoms

 Group   1 Type B   : 12s5p4d2f1g contracted to 6s4p3d1f1g pattern {711111/2111/211/2/1}

Atom   0B    basis set group =>   1
Atom   1B    basis set group =>   1
Atom   2B    basis set group =>   1
Atom   3B    basis set group =>   1
Atom   4B    basis set group =>   1
Atom   5B    basis set group =>   1
Atom   6B    basis set group =>   1
Atom   7B    basis set group =>   1
Atom   8B    basis set group =>   1
Atom   9B    basis set group =>   1
Atom  10B    basis set group =>   1
Atom  11B    basis set group =>   1


           ************************************************************
           *        Program running with 8 parallel MPI-processes     *
           *              working on a common directory               *
           ************************************************************
------------------------------------------------------------------------------
                             ORCA STARTUP CALCULATIONS
                           -- RI-GTO INTEGRALS CHOSEN --
------------------------------------------------------------------------------
------------------------------------------------------------------------------
                   ___                                                        
                  /   \      - P O W E R E D   B Y -                         
                 /     \                                                     
                 |  |  |   _    _      __       _____    __    __             
                 |  |  |  | |  | |    /  \     |  _  \  |  |  /  |          
                  \  \/   | |  | |   /    \    | | | |  |  | /  /          
                 / \  \   | |__| |  /  /\  \   | |_| |  |  |/  /          
                |  |  |   |  __  | /  /__\  \  |    /   |      \           
                |  |  |   | |  | | |   __   |  |    \   |  |\   \          
                \     /   | |  | | |  |  |  |  | |\  \  |  | \   \       
                 \___/    |_|  |_| |__|  |__|  |_| \__\ |__|  \__/        
                                                                              
                      - O R C A' S   B I G   F R I E N D -                    
                                      &                                       
                       - I N T E G R A L  F E E D E R -                       
                                                                              
 v1 FN, 2020, v2 2021, v3 2022-2024                                           
------------------------------------------------------------------------------


----------------------
SHARK INTEGRAL PACKAGE
----------------------

Number of atoms                             ...     12
Number of basis functions                   ...    168
Number of shells                            ...     72
Maximum angular momentum                    ...      2
Integral batch strategy                     ... SHARK/LIBINT Hybrid
RI-J (if used) integral strategy            ... SPLIT-RIJ (Revised 2003 algorithm where possible)
Printlevel                                  ...      1
Contraction scheme used                     ... SEGMENTED contraction
Prescreening option                         ... SCHWARTZ
   Thresh                                   ... 2.500e-11
   Tcut                                     ... 2.500e-12
   Tpresel                                  ... 2.500e-12 
Coulomb Range Separation                    ... NOT USED
Exchange Range Separation                   ... NOT USED
Multipole approximations                    ... NOT USED
Finite Nucleus Model                        ... NOT USED
CABS basis                                  ... NOT available
Auxiliary Coulomb fitting basis             ... AVAILABLE
   # of basis functions in Aux-J            ...    588
   # of shells in Aux-J                     ...    180
   Maximum angular momentum in Aux-J        ...      4
Auxiliary J/K fitting basis                 ... NOT available
Auxiliary Correlation fitting basis         ... NOT available
Auxiliary 'external' fitting basis          ... NOT available

Checking pre-screening integrals            ... done (  0.0 sec) Dimension = 72
   => SHARK Basis and OBASIS are compatible. Storing Pre-screening
Shell pair information
Shell pair cut-off parameter TPreSel        ...   2.5e-12
Total number of shell pairs                 ...      2628
Shell pairs after pre-screening             ...      2592
Total number of primitive shell pairs       ...     10596
Primitive shell pairs kept                  ...      7951
          la=0 lb=0:    630 shell pairs
          la=1 lb=0:    864 shell pairs
          la=1 lb=1:    300 shell pairs
          la=2 lb=0:    432 shell pairs
          la=2 lb=1:    288 shell pairs
          la=2 lb=2:     78 shell pairs

Checking whether 4 symmetric matrices of dimension 168 fit in memory
:Max Core in MB      =   2500.00
 MB in use           =      6.92
 MB left             =   2493.08
 MB needed           =      0.43
 Data fit in memory  = YES
Calculating RI/J V-Matrix + Cholesky decomp.... done (  0.0 sec)
Calculating Nuclear repulsion               ... done (  0.0 sec) ENN=    343.662785464390 Eh

Diagonalization of the overlap matrix:
Smallest eigenvalue                        ... 2.553e-04
Time for diagonalization                   ...    0.004 sec
Threshold for overlap eigenvalues          ... 1.000e-07
Number of eigenvalues below threshold      ... 0
Time for construction of square roots      ...    0.002 sec
Total time needed                          ...    0.008 sec

-------------------
DFT GRID GENERATION
-------------------

General Integration Accuracy     IntAcc      ... 4.388
Radial Grid Type                 RadialGrid  ... OptM3 with GC (2021)
Angular Grid (max. ang.)         AngularGrid ... 4 (Lebedev-302)
Angular grid pruning method      GridPruning ... 4 (adaptive)
Weight generation scheme         WeightScheme... mBecke (2022)
Basis function cutoff            BFCut       ... 1.0000e-11
Integration weight cutoff        WCut        ... 1.0000e-14
Partially contracted basis set               ... off
Rotationally invariant grid construction     ... off
Angular grids for H and He will be reduced by one unit

Total number of grid points                  ...    70693
Total number of batches                      ...     1111
Average number of points per batch           ...       63
Average number of grid points per atom       ...     5891
Grids setup in   0.8 sec
Initializing property integral containers    ... done (  0.0 sec)

SHARK setup successfully completed in   1.0 seconds

Maximum memory used throughout the entire STARTUP-calculation: 19.8 MB


           ************************************************************
           *        Program running with 8 parallel MPI-processes     *
           *              working on a common directory               *
           ************************************************************
-------------------------------------------------------------------------------
                                 ORCA GUESS
                   Start orbitals & Density for SCF / CASSCF
-------------------------------------------------------------------------------

------------
SCF SETTINGS
------------
Hamiltonian:
 Density Functional     Method          .... DFT(GTOs)
 Exchange Functional    Exchange        .... B88
   X-Alpha parameter    XAlpha          ....  0.666667
   Becke's b parameter  XBeta           ....  0.004200
 Correlation Functional Correlation     .... P86
 LDA part of GGA corr.  LDAOpt          .... PW91-LDA
 Gradients option       PostSCFGGA      .... off
   NL short-range parameter             ....  4.400000
 RI-approximation to the Coulomb term is turned on
   Number of AuxJ basis functions       .... 588


General Settings:
 Integral files         IntName         .... icosahedron_nn2.00_perturb2
 Hartree-Fock type      HFTyp           .... RHF
 Total Charge           Charge          ....    0
 Multiplicity           Mult            ....    1
 Number of Electrons    NEL             ....   60
 Basis Dimension        Dim             ....  168
 Nuclear Repulsion      ENuc            ....    343.6627854644 Eh

Convergence Acceleration:
 AO-DIIS                CNVDIIS         .... on
   Start iteration      DIISMaxIt       ....     0
   Startup error        DIISStart       ....  0.200000
   # of expansion vecs  DIISMaxEq       ....     5
   Bias factor          DIISBfac        ....   1.050
   Max. coefficient     DIISMaxC        ....  10.000
 MO-DIIS                CNVKDIIS        .... off
 Trust-Rad. Augm. Hess. CNVTRAH         .... auto
   Auto Start mean grad. ratio tolernc. ....  1.125000
   Auto Start start iteration           ....    50
   Auto Start num. interpolation iter.  ....    10
   Max. Number of Micro iterations      ....    24
   Max. Number of Macro iterations      .... Maxiter - #DIIS iter
   Number of Davidson start vectors     ....     2
   Converg. threshold    (grad. norm)   ....   1.000e-05
   Grad. Scal. Fac. for Micro threshold ....   0.100
   Minimum threshold for Micro iter.    ....   1.000e-02
   NR start threshold (gradient norm)   ....   1.000e-04
   Initial trust radius                 ....   0.400
   Minimum AH scaling param. (alpha)    ....   1.000
   Maximum AH scaling param. (alpha)    .... 1000.000
   Quad. conv. algorithm                .... NR
   White noise on init. David. guess    .... on
   Maximum white noise                  ....   0.010
   Pseudo random numbers                .... off
   Inactive MOs                         .... canonical
   Orbital update algorithm             .... Taylor
   Preconditioner                       .... Diag
   Full preconditioner red. dimension   ....   250
 SOSCF                 CNVSOSCF           .... on
   Start iteration     SOSCFMaxIt         ....   150
   Startup grad/error  SOSCFStart         ....  0.001000
   Hessian update      SOSCFHessUp        .... L-BFGS
   Autom. constraints  SOSCFAutoConstrain .... off
 Level Shifting         CNVShift        .... on
   Level shift para.    LevelShift      ....    0.2500
   Turn off err/grad.   ShiftErr        ....    0.0000
 Zerner damping         CNVZerner       .... off
 Static damping         CNVDamp         .... on
   Fraction old density DampFac         ....    0.8500
   Max. Damping (<1)    DampMax         ....    0.9800
   Min. Damping (>=0)   DampMin         ....    0.0000
   Turn off err/grad.   DampErr         ....    0.0300

SCF Procedure:
 Maximum # iterations   MaxIter         ....   125
 SCF integral mode      SCFMode         .... Direct
   Integral package                     .... SHARK and LIBINT hybrid scheme
 Reset frequency        DirectResetFreq ....    20
 Integral Threshold     Thresh          ....  2.500e-11 Eh
 Primitive CutOff       TCut            ....  2.500e-12 Eh

Convergence Tolerance:
 Convergence Check Mode ConvCheckMode   .... Total+1el-Energy
 Convergence forced     ConvForced      .... 0
 Energy Change          TolE            ....  1.000e-08 Eh
 1-El. energy change                    ....  1.000e-05 Eh
 Orbital Gradient       TolG            ....  1.000e-05
 Orbital Rotation angle TolX            ....  1.000e-05
 DIIS Error             TolErr          ....  5.000e-07

------------------------------
INITIAL GUESS: MODEL POTENTIAL
------------------------------
Loading Hartree-Fock densities                     ... done
Calculating cut-offs                               ... done
Initializing the effective Hamiltonian             ... done
Setting up the integral package (SHARK)            ... done
Starting the Coulomb interaction                   ... done (   0.1 sec)
Making the grid                                    ... done (   0.4 sec)
Mapping shells                                     ... done
Starting the XC term evaluation                    ... done (   0.1 sec)
  promolecular density results
     # of electrons  =     60.001408074
     EX              =    -45.465856932
     EC              =     -1.985917908
     EX+EC           =    -47.451774840
Transforming the Hamiltonian                       ... done (   0.0 sec)
Diagonalizing the Hamiltonian                      ... done (   0.0 sec)
Back transforming the eigenvectors                 ... done (   0.0 sec)
Now organizing SCF variables                       ... done
                      ------------------
                      INITIAL GUESS DONE (   0.7 sec)
                      ------------------
             **** ENERGY FILE WAS UPDATED (icosahedron_nn2.00_perturb2.en.tmp) ****
Finished Guess after   1.3 sec
Maximum memory used throughout the entire GUESS-calculation: 9.8 MB


           ************************************************************
           *        Program running with 8 parallel MPI-processes     *
           *              working on a common directory               *
           ************************************************************

-------------------------------------------------------------------------------------------
                                      ORCA LEAN-SCF
                              memory conserving SCF solver
-------------------------------------------------------------------------------------------

----------------------------------------D-I-I-S--------------------------------------------
Iteration    Energy (Eh)           Delta-E    RMSDP     MaxDP     DIISErr   Damp  Time(sec)
-------------------------------------------------------------------------------------------
               ***  Starting incremental Fock matrix formation  ***
    1    -296.9310191263965066     0.00e+00  1.52e-02  3.37e-01  1.09e-01  0.850   1.0
Warning: op=0 Small HOMO/LUMO gap (  -0.058) - skipping pre-diagonalization
         Will do a full diagonalization
    2    -297.0404321686453954    -1.09e-01  1.67e-02  3.42e-01  7.51e-02  0.850   0.4
                               ***Turning on AO-DIIS***
    3    -297.0931240041043679    -5.27e-02  1.12e-02  2.47e-01  4.63e-02  0.850   0.4
    4    -297.1194524062329378    -2.63e-02  7.31e-03  1.64e-01  3.09e-02  0.850   0.6
    5    -297.1388421042969981    -1.94e-02  5.04e-03  1.10e-01  2.17e-02  0.850   1.1
    6    -297.1538938187993040    -1.51e-02  2.53e-02  5.24e-01  1.61e-02  0.000   0.5
    7    -297.2285010489526371    -7.46e-02  4.57e-03  3.81e-02  1.13e-02  0.000   0.7
    8    -297.2317990765691889    -3.30e-03  2.37e-03  3.02e-02  4.36e-03  0.000   0.4
    9    -297.2325091463256399    -7.10e-04  1.29e-03  1.16e-02  1.42e-03  0.000   0.5
   10    -297.2327366348468445    -2.27e-04  1.08e-03  8.31e-03  1.43e-03  0.000   0.5
                              *** Initializing SOSCF ***
---------------------------------------S-O-S-C-F--------------------------------------
Iteration    Energy (Eh)           Delta-E    RMSDP     MaxDP     MaxGrad    Time(sec)
--------------------------------------------------------------------------------------
   11    -297.2329087142294952    -1.72e-04  9.61e-04  7.30e-03  9.96e-04     0.4
               *** Restarting incremental Fock matrix formation ***
   12    -297.2330436492010790    -1.35e-04  2.16e-03  1.69e-02  2.05e-03     0.5
   13    -297.2332293068959075    -1.86e-04  1.13e-02  8.80e-02  3.57e-03     0.4
               *** Scaled step length from 0.871717 to 0.200000 ***
   14    -297.2345736337144331    -1.34e-03  1.67e-02  1.23e-01  3.83e-03     0.4
   15    -297.2354500390546832    -8.76e-04  4.61e-03  3.19e-02  4.55e-03     0.3
   16    -297.2364680735356046    -1.02e-03  5.39e-03  4.45e-02  3.13e-03     0.5
               *** Scaled step length from 0.228654 to 0.200000 ***
   17    -297.2374854361618759    -1.02e-03  1.66e-02  1.37e-01  3.15e-03     0.4
   18    -297.2380022443009580    -5.17e-04  6.29e-03  4.53e-02  3.68e-03     0.5
   19    -297.2391313543333240    -1.13e-03  4.07e-03  3.38e-02  2.16e-03     0.4
   20    -297.2392460311563696    -1.15e-04  2.71e-03  2.01e-02  2.69e-03     0.3
   21    -297.2399194111539487    -6.73e-04  4.37e-03  2.66e-02  1.02e-03     0.5
   22    -297.2401617382633390    -2.42e-04  3.54e-03  1.92e-02  1.66e-03     0.8
   23    -297.2404693415156203    -3.08e-04  5.10e-03  5.31e-02  1.06e-03     0.4
   24    -297.2405545551142154    -8.52e-05  3.93e-03  2.45e-02  1.53e-03     0.3
   25    -297.2404622254962874     9.23e-05  2.23e-03  1.52e-02  1.82e-03     0.5
   26    -297.2407118246258619    -2.50e-04  6.45e-04  6.91e-03  6.14e-04     0.4
   27    -297.2407347472264405    -2.29e-05  6.59e-04  4.76e-03  4.06e-04     0.4
   28    -297.2407459065835269    -1.12e-05  7.16e-04  3.67e-03  1.63e-04     0.4
   29    -297.2407524232116316    -6.52e-06  2.07e-04  1.80e-03  1.32e-04     0.6
   30    -297.2407537772209594    -1.35e-06  1.80e-04  1.45e-03  6.44e-05     0.5
   31    -297.2407545310838373    -7.54e-07  1.83e-04  1.28e-03  4.16e-05     0.4
               *** Restarting incremental Fock matrix formation ***
   32    -297.2407549296141838    -3.99e-07  1.16e-04  7.44e-04  5.32e-05     0.5
   33    -297.2407551457491195    -2.16e-07  7.37e-05  4.59e-04  2.68e-05     0.3
   34    -297.2407552679769083    -1.22e-07  1.01e-04  7.27e-04  2.26e-05     0.3
   35    -297.2407553614884250    -9.35e-08  5.16e-05  4.69e-04  1.24e-05     0.3
   36    -297.2407553896766217    -2.82e-08  2.08e-05  1.82e-04  6.03e-06     0.3
   37    -297.2407553997462060    -1.01e-08  7.92e-06  9.54e-05  4.45e-06     0.3
   38    -297.2407554044762605    -4.73e-09  5.11e-06  3.09e-05  2.12e-06     0.3
                 **** Energy Check signals convergence ****

               *****************************************************
               *                     SUCCESS                       *
               *           SCF CONVERGED AFTER  38 CYCLES          *
               *****************************************************

             **** ENERGY FILE WAS UPDATED (icosahedron_nn2.00_perturb2.en.tmp) ****

----------------
TOTAL SCF ENERGY
----------------

Total Energy       :       -297.24075540611733 Eh           -8088.33216 eV

Components:
Nuclear Repulsion  :        343.66278546439008 Eh            9351.53982 eV
Electronic Energy  :       -640.90354087050741 Eh          -17439.87197 eV
One Electron Energy:      -1074.81114444413311 Eh          -29247.09813 eV
Two Electron Energy:        433.90760357362575 Eh           11807.22616 eV

Virial components:
Potential Energy   :       -588.37729573128377 Eh          -16010.56018 eV
Kinetic Energy     :        291.13654032516644 Eh            7922.22802 eV
Virial Ratio       :          2.02096684625754

DFT components:
N(Alpha)           :       29.999919688933 electrons
N(Beta)            :       29.999919688933 electrons
N(Total)           :       59.999839377866 electrons
E(X)               :      -45.646099824870 Eh       
E(C)               :       -2.015613027021 Eh       
E(XC)              :      -47.661712851891 Eh       

---------------
SCF CONVERGENCE
---------------

  Last Energy change         ...    4.7301e-09  Tolerance :   1.0000e-08
  Last MAX-Density change    ...    3.0939e-05  Tolerance :   1.0000e-07
  Last RMS-Density change    ...    5.1146e-06  Tolerance :   5.0000e-09
  Last DIIS Error            ...    9.9615e-04  Tolerance :   5.0000e-07
  Last Orbital Gradient      ...    2.1213e-06  Tolerance :   1.0000e-05
  Last Orbital Rotation      ...    4.8968e-05  Tolerance :   1.0000e-05


----------------
ORBITAL ENERGIES
----------------

  NO   OCC          E(Eh)            E(eV) 
   0   2.0000      -6.649306      -180.9368 
   1   2.0000      -6.646485      -180.8600 
   2   2.0000      -6.637566      -180.6174 
   3   2.0000      -6.636702      -180.5939 
   4   2.0000      -6.636539      -180.5894 
   5   2.0000      -6.630121      -180.4148 
   6   2.0000      -6.626994      -180.3297 
   7   2.0000      -6.624111      -180.2512 
   8   2.0000      -6.621017      -180.1670 
   9   2.0000      -6.619425      -180.1237 
  10   2.0000      -6.612265      -179.9289 
  11   2.0000      -6.608034      -179.8137 
  12   2.0000      -0.681569       -18.5464 
  13   2.0000      -0.585050       -15.9200 
  14   2.0000      -0.554528       -15.0895 
  15   2.0000      -0.533695       -14.5226 
  16   2.0000      -0.447562       -12.1788 
  17   2.0000      -0.421003       -11.4561 
  18   2.0000      -0.420386       -11.4393 
  19   2.0000      -0.392070       -10.6688 
  20   2.0000      -0.389782       -10.6065 
  21   2.0000      -0.316246        -8.6055 
  22   2.0000      -0.311351        -8.4723 
  23   2.0000      -0.296663        -8.0726 
  24   2.0000      -0.284526        -7.7424 
  25   2.0000      -0.272818        -7.4238 
  26   2.0000      -0.236880        -6.4458 
  27   2.0000      -0.223247        -6.0749 
  28   2.0000      -0.212254        -5.7757 
  29   2.0000      -0.206366        -5.6155 
  30   0.0000      -0.206441        -5.6175 
  31   0.0000      -0.199076        -5.4171 
  32   0.0000      -0.165122        -4.4932 
  33   0.0000      -0.151540        -4.1236 
  34   0.0000      -0.145491        -3.9590 
  35   0.0000      -0.135311        -3.6820 
  36   0.0000      -0.116651        -3.1742 
  37   0.0000      -0.100605        -2.7376 
  38   0.0000      -0.082734        -2.2513 
  39   0.0000      -0.052852        -1.4382 
  40   0.0000      -0.046639        -1.2691 
*Only the first 10 virtual orbitals were printed.

                    ********************************
                    * MULLIKEN POPULATION ANALYSIS *
                    ********************************

-----------------------
MULLIKEN ATOMIC CHARGES
-----------------------
   0 B :   -0.015578
   1 B :   -0.033566
   2 B :    0.018421
   3 B :   -0.023106
   4 B :    0.087448
   5 B :    0.007057
   6 B :   -0.079779
   7 B :    0.023425
   8 B :    0.049475
   9 B :   -0.064283
  10 B :   -0.017734
  11 B :    0.048222
Sum of atomic charges:   -0.0000000

--------------------------------
MULLIKEN REDUCED ORBITAL CHARGES
--------------------------------
  0 B s       :     3.372873  s :     3.372873
      pz      :     0.516300  p :     1.606129
      px      :     0.516557
      py      :     0.573272
      dz2     :     0.006495  d :     0.036576
      dxz     :     0.007812
      dyz     :     0.006353
      dx2y2   :     0.007557
      dxy     :     0.008360

  1 B s       :     3.341749  s :     3.341749
      pz      :     0.650726  p :     1.650460
      px      :     0.519191
      py      :     0.480542
      dz2     :     0.006802  d :     0.041357
      dxz     :     0.007664
      dyz     :     0.010926
      dx2y2   :     0.009477
      dxy     :     0.006488

  2 B s       :     3.215356  s :     3.215356
      pz      :     0.592788  p :     1.723993
      px      :     0.489438
      py      :     0.641767
      dz2     :     0.010501  d :     0.042231
      dxz     :     0.008527
      dyz     :     0.006548
      dx2y2   :     0.009234
      dxy     :     0.007421

  3 B s       :     3.079194  s :     3.079194
      pz      :     0.587760  p :     1.895262
      px      :     0.638994
      py      :     0.668508
      dz2     :     0.007162  d :     0.048651
      dxz     :     0.009261
      dyz     :     0.009524
      dx2y2   :     0.010619
      dxy     :     0.012084

  4 B s       :     3.099414  s :     3.099414
      pz      :     0.673636  p :     1.766271
      px      :     0.668083
      py      :     0.424553
      dz2     :     0.008526  d :     0.046867
      dxz     :     0.010373
      dyz     :     0.011359
      dx2y2   :     0.009172
      dxy     :     0.007437

  5 B s       :     3.332499  s :     3.332499
      pz      :     0.573863  p :     1.619179
      px      :     0.485451
      py      :     0.559866
      dz2     :     0.009435  d :     0.041264
      dxz     :     0.008159
      dyz     :     0.006114
      dx2y2   :     0.008980
      dxy     :     0.008576

  6 B s       :     3.014420  s :     3.014420
      pz      :     0.692801  p :     2.021676
      px      :     0.703886
      py      :     0.624989
      dz2     :     0.007714  d :     0.043683
      dxz     :     0.009779
      dyz     :     0.007322
      dx2y2   :     0.008032
      dxy     :     0.010835

  7 B s       :     3.313620  s :     3.313620
      pz      :     0.608012  p :     1.626735
      px      :     0.580523
      py      :     0.438200
      dz2     :     0.005947  d :     0.036220
      dxz     :     0.007182
      dyz     :     0.009466
      dx2y2   :     0.007284
      dxy     :     0.006342

  8 B s       :     3.333011  s :     3.333011
      pz      :     0.498026  p :     1.566181
      px      :     0.482352
      py      :     0.585803
      dz2     :     0.010800  d :     0.051334
      dxz     :     0.011661
      dyz     :     0.006146
      dx2y2   :     0.012388
      dxy     :     0.010338

  9 B s       :     2.680838  s :     2.680838
      pz      :     0.795321  p :     2.317655
      px      :     0.738846
      py      :     0.783488
      dz2     :     0.009714  d :     0.065790
      dxz     :     0.012845
      dyz     :     0.011378
      dx2y2   :     0.015627
      dxy     :     0.016226

 10 B s       :     3.482319  s :     3.482319
      pz      :     0.547335  p :     1.496740
      px      :     0.538110
      py      :     0.411295
      dz2     :     0.005665  d :     0.038675
      dxz     :     0.007198
      dyz     :     0.009258
      dx2y2   :     0.010009
      dxy     :     0.006546

 11 B s       :     3.330642  s :     3.330642
      pz      :     0.532587  p :     1.581938
      px      :     0.462960
      py      :     0.586392
      dz2     :     0.008909  d :     0.039198
      dxz     :     0.007149
      dyz     :     0.006409
      dx2y2   :     0.009469
      dxy     :     0.007261



                     *******************************
                     * LOEWDIN POPULATION ANALYSIS *
                     *******************************

----------------------
LOEWDIN ATOMIC CHARGES
----------------------
   0 B :    0.028693
   1 B :    0.046152
   2 B :   -0.022725
   3 B :   -0.009867
   4 B :    0.030562
   5 B :   -0.043166
   6 B :    0.000900
   7 B :    0.068940
   8 B :   -0.016479
   9 B :   -0.071970
  10 B :    0.008617
  11 B :   -0.019656

-------------------------------
LOEWDIN REDUCED ORBITAL CHARGES
-------------------------------
  0 B s       :     2.938360  s :     2.938360
      pz      :     0.614448  p :     1.951598
      px      :     0.601806
      py      :     0.735344
      dz2     :     0.015055  d :     0.081349
      dxz     :     0.018443
      dyz     :     0.011243
      dx2y2   :     0.017929
      dxy     :     0.018680

  1 B s       :     2.905328  s :     2.905328
      pz      :     0.747510  p :     1.957700
      px      :     0.575429
      py      :     0.634761
      dz2     :     0.011434  d :     0.090820
      dxz     :     0.019450
      dyz     :     0.028837
      dx2y2   :     0.019671
      dxy     :     0.011427

  2 B s       :     2.873580  s :     2.873580
      pz      :     0.655048  p :     2.051232
      px      :     0.628386
      py      :     0.767799
      dz2     :     0.020875  d :     0.097913
      dxz     :     0.016383
      dyz     :     0.020075
      dx2y2   :     0.021946
      dxy     :     0.018635

  3 B s       :     2.727818  s :     2.727818
      pz      :     0.677574  p :     2.160355
      px      :     0.688746
      py      :     0.794035
      dz2     :     0.018196  d :     0.121694
      dxz     :     0.024646
      dyz     :     0.018183
      dx2y2   :     0.028524
      dxy     :     0.032145

  4 B s       :     2.790950  s :     2.790950
      pz      :     0.744996  p :     2.063381
      px      :     0.754502
      py      :     0.563884
      dz2     :     0.017281  d :     0.115107
      dxz     :     0.027414
      dyz     :     0.034183
      dx2y2   :     0.018745
      dxy     :     0.017484

  5 B s       :     2.927496  s :     2.927496
      pz      :     0.660697  p :     2.022426
      px      :     0.693011
      py      :     0.668718
      dz2     :     0.022616  d :     0.093245
      dxz     :     0.014707
      dyz     :     0.014601
      dx2y2   :     0.019969
      dxy     :     0.021352

  6 B s       :     2.748486  s :     2.748486
      pz      :     0.662028  p :     2.144799
      px      :     0.777259
      py      :     0.705512
      dz2     :     0.017702  d :     0.105814
      dxz     :     0.026642
      dyz     :     0.013168
      dx2y2   :     0.021872
      dxy     :     0.026431

  7 B s       :     2.958894  s :     2.958894
      pz      :     0.712744  p :     1.891599
      px      :     0.645468
      py      :     0.533387
      dz2     :     0.011122  d :     0.080567
      dxz     :     0.019256
      dyz     :     0.023228
      dx2y2   :     0.014190
      dxy     :     0.012772

  8 B s       :     2.893104  s :     2.893104
      pz      :     0.594053  p :     2.003631
      px      :     0.740433
      py      :     0.669145
      dz2     :     0.024740  d :     0.119744
      dxz     :     0.020929
      dyz     :     0.017261
      dx2y2   :     0.030683
      dxy     :     0.026130

  9 B s       :     2.650210  s :     2.650210
      pz      :     0.668236  p :     2.263128
      px      :     0.805980
      py      :     0.788912
      dz2     :     0.023996  d :     0.158632
      dxz     :     0.029834
      dyz     :     0.023133
      dx2y2   :     0.042407
      dxy     :     0.039261

 10 B s       :     2.985621  s :     2.985621
      pz      :     0.635565  p :     1.918841
      px      :     0.635318
      py      :     0.647959
      dz2     :     0.010211  d :     0.086921
      dxz     :     0.016856
      dyz     :     0.023667
      dx2y2   :     0.021787
      dxy     :     0.014399

 11 B s       :     2.948925  s :     2.948925
      pz      :     0.655495  p :     1.981353
      px      :     0.617922
      py      :     0.707936
      dz2     :     0.020854  d :     0.089378
      dxz     :     0.012597
      dyz     :     0.016199
      dx2y2   :     0.022175
      dxy     :     0.017552



                      *****************************
                      * MAYER POPULATION ANALYSIS *
                      *****************************

  NA   - Mulliken gross atomic population
  ZA   - Total nuclear charge
  QA   - Mulliken gross atomic charge
  VA   - Mayer's total valence
  BVA  - Mayer's bonded valence
  FA   - Mayer's free valence

  ATOM       NA         ZA         QA         VA         BVA        FA
  0 B      5.0156     5.0000    -0.0156     3.1600     3.1600    -0.0000
  1 B      5.0336     5.0000    -0.0336     3.2185     3.2185    -0.0000
  2 B      4.9816     5.0000     0.0184     3.0891     3.0891     0.0000
  3 B      5.0231     5.0000    -0.0231     3.5962     3.5962     0.0000
  4 B      4.9126     5.0000     0.0874     3.2670     3.2670    -0.0000
  5 B      4.9929     5.0000     0.0071     2.9220     2.9220     0.0000
  6 B      5.0798     5.0000    -0.0798     3.5625     3.5625    -0.0000
  7 B      4.9766     5.0000     0.0234     3.0628     3.0628     0.0000
  8 B      4.9505     5.0000     0.0495     2.8948     2.8948    -0.0000
  9 B      5.0643     5.0000    -0.0643     3.9176     3.9176    -0.0000
 10 B      5.0177     5.0000    -0.0177     2.9207     2.9207    -0.0000
 11 B      4.9518     5.0000     0.0482     2.8840     2.8840    -0.0000

  Mayer bond orders larger than 0.100000
B(  0-B ,  1-B ) :   0.4326 B(  0-B ,  2-B ) :   0.3461 B(  0-B ,  3-B ) :   0.1189 
B(  0-B ,  5-B ) :   0.3724 B(  0-B ,  6-B ) :   0.8818 B(  0-B ,  7-B ) :   0.6333 
B(  0-B ,  9-B ) :   0.1278 B(  0-B , 11-B ) :   0.1078 B(  1-B ,  2-B ) :   0.6194 
B(  1-B ,  3-B ) :   0.6695 B(  1-B ,  4-B ) :   0.2001 B(  1-B ,  7-B ) :   0.2483 
B(  1-B ,  8-B ) :   0.5699 B(  1-B , 10-B ) :   0.1844 B(  2-B ,  4-B ) :   0.6782 
B(  2-B ,  6-B ) :   0.5519 B(  2-B ,  8-B ) :   0.2738 B(  2-B ,  9-B ) :   0.1190 
B(  2-B , 10-B ) :   0.1199 B(  2-B , 11-B ) :   0.2299 B(  3-B ,  4-B ) :   0.1465 
B(  3-B ,  7-B ) :   0.5877 B(  3-B ,  8-B ) :   0.3941 B(  3-B ,  9-B ) :   0.9903 
B(  3-B , 11-B ) :   0.4566 B(  4-B ,  6-B ) :   0.5406 B(  4-B ,  8-B ) :   0.4721 
B(  4-B ,  9-B ) :   0.7079 B(  4-B , 10-B ) :   0.2874 B(  5-B ,  6-B ) :   0.5957 
B(  5-B ,  7-B ) :   0.4220 B(  5-B ,  8-B ) :   0.3584 B(  5-B ,  9-B ) :   0.1017 
B(  5-B , 10-B ) :   0.3600 B(  5-B , 11-B ) :   0.4379 B(  6-B ,  9-B ) :   0.1823 
B(  6-B , 10-B ) :   0.4907 B(  7-B ,  9-B ) :   0.1032 B(  7-B , 10-B ) :   0.3272 
B(  7-B , 11-B ) :   0.5189 B(  8-B ,  9-B ) :   0.6559 B(  9-B , 10-B ) :   0.4661 
B(  9-B , 11-B ) :   0.3681 B( 10-B , 11-B ) :   0.5388 

-------
TIMINGS
-------

Total SCF time: 0 days 0 hours 0 min 19 sec 

Total time                  ....      19.044 sec
Sum of individual times     ....      18.538 sec  ( 97.3%)

SCF preparation             ....       0.911 sec  (  4.8%)
Fock matrix formation       ....      15.016 sec  ( 78.8%)
  Startup                   ....       0.077 sec  (  0.5% of F)
  Split-RI-J                ....       4.788 sec  ( 31.9% of F)
  XC integration            ....       9.512 sec  ( 63.3% of F)
    XC Preparation          ....       0.000 sec  (  0.0% of XC)
    Basis function eval.    ....       1.823 sec  ( 19.2% of XC)
    Density eval.           ....       1.374 sec  ( 14.4% of XC)
    XC-Functional eval.     ....       0.223 sec  (  2.3% of XC)
    XC-Potential eval.      ....       1.820 sec  ( 19.1% of XC)
Diagonalization             ....       0.000 sec  (  0.0%)
Density matrix formation    ....       0.502 sec  (  2.6%)
Total Energy calculation    ....       0.211 sec  (  1.1%)
Population analysis         ....       0.039 sec  (  0.2%)
Orbital Transformation      ....       0.036 sec  (  0.2%)
Orbital Orthonormalization  ....       0.000 sec  (  0.0%)
DIIS solution               ....       0.809 sec  (  4.2%)
SOSCF solution              ....       1.015 sec  (  5.3%)
Finished LeanSCF after  19.1 sec

Maximum memory used throughout the entire LEANSCF-calculation: 10.2 MB


-------------------------------------------------------------------------------
                          DFT DISPERSION CORRECTION                            
                                                                               
                              DFTD3 V3.1  Rev 1                                
                          USING Becke-Johnson damping                          
-------------------------------------------------------------------------------
The BP86 functional is recognized
Active option DFTDOPT                   ...         4   

molecular C6(AA) [au] = 5207.843029 


            DFT-D V3
 parameters
 s6 scaling factor         :     1.0000 
 a1 scaling factor         :     0.3946 
 s8 scaling factor         :     3.2822 
 a2 scaling factor         :     4.8516 
 ad hoc parameters k1-k3   :    16.0000     1.3333    -4.0000 

 Edisp/kcal,au: -27.952983190234  -0.044545909447 
 E6   /kcal   :  -7.934431248 
 E8   /kcal   : -20.018551943 
 % E8         :  71.615082392 

-------------------------   ----------------
Dispersion correction           -0.044545909
-------------------------   ----------------


-------------------------   --------------------
FINAL SINGLE POINT ENERGY      -297.285301315564
-------------------------   --------------------



           ************************************************************
           *        Program running with 8 parallel MPI-processes     *
           *              working on a common directory               *
           ************************************************************
------------------------------------------------------------------------------
                         ORCA SCF GRADIENT CALCULATION
------------------------------------------------------------------------------

Nuc. rep. gradient        (SHARK) ... done (  0.0 sec)
HCore & Overlap gradient  (SHARK) ... done (  0.0 sec)
Split-RIJ-J gradient      (SHARK) ... done (  0.4 sec)
XC gradient                       ... done (  1.0 sec)
Dispersion correction             ... done (  0.1 sec)

-------------------
DISPERSION GRADIENT
-------------------

   1   B   :    0.001907446    0.001569559    0.003990711
   2   B   :    0.002823059    0.004717852    0.001271408
   3   B   :    0.000840263   -0.002197202    0.001132507
   4   B   :    0.001948532   -0.000282509   -0.004199487
   5   B   :    0.002386529    0.000363740    0.000207526
   6   B   :   -0.004035642    0.000217391    0.008150360
   7   B   :    0.002105592    0.000035569    0.002236704
   8   B   :   -0.000431407    0.008093619    0.000000549
   9   B   :   -0.000046747   -0.001937602   -0.001238216
  10   B   :    0.006423924    0.000818614   -0.003374767
  11   B   :   -0.003834031   -0.012252030   -0.000081223
  12   B   :   -0.010087517    0.000852999   -0.008096072

Difference to translation invariance:
           :   -0.0000000000    0.0000000000    0.0000000000

Difference to rotation invariance:
           :    0.0000000000   -0.0000000000   -0.0000000000

Norm of the Dispersion gradient    ...    0.0252473780
RMS gradient                       ...    0.0042078963
MAX gradient                       ...    0.0122520296

------------------
CARTESIAN GRADIENT
------------------

   1   B   :   -0.002547692   -0.045428359   -0.053046236
   2   B   :   -0.019070127   -0.046934264   -0.005205209
   3   B   :   -0.050397128   -0.010351271   -0.029066039
   4   B   :   -0.008370108    0.010806392    0.046219187
   5   B   :   -0.010279937    0.060940940    0.019964564
   6   B   :    0.040534857    0.014724212   -0.043812782
   7   B   :    0.012182768    0.042574038   -0.048924579
   8   B   :    0.018798474   -0.075042076    0.006919939
   9   B   :   -0.017810921    0.020112022    0.050656989
  10   B   :   -0.034855803   -0.032567888    0.006252840
  11   B   :    0.025657229    0.043557800    0.008862342
  12   B   :    0.046158388    0.017608455    0.041178985

Difference to translation invariance:
           :   -0.0000000000    0.0000000000   -0.0000000000

Difference to rotation invariance:
           :   -0.0010948072   -0.0009140380    0.0001634745

Norm of the Cartesian gradient     ...    0.2098816525
RMS gradient                       ...    0.0349802754
MAX gradient                       ...    0.0750420762

-------
TIMINGS
-------

Total SCF gradient time     ....        1.559 sec

Densities                   ....       0.001 sec  (  0.0%)
One electron gradient       ....       0.050 sec  (  3.2%)
RI-J Coulomb gradient       ....       0.410 sec  ( 26.3%)
XC gradient                 ....       1.028 sec  ( 65.9%)

Maximum memory used throughout the entire SCFGRAD-calculation: 29.8 MB
------------------------------------------------------------------------------
                         ORCA GEOMETRY RELAXATION STEP
------------------------------------------------------------------------------

Reading the OPT-File                    .... done
Getting information on internals        .... done
Copying old internal coords+grads       .... done
Making the new internal coordinates     .... (2022 redundants) done
Validating the new internal coordinates .... (2022 redundants) done
Calculating the B-matrix                .... done
Calculating the G,G- and P matrices     .... done
Transforming gradient to internals      .... done
Projecting the internal gradient        .... done
Number of atoms                         ....  12
Number of internal coordinates          .... 204
Current Energy                          ....  -297.285301316 Eh
Current gradient norm                   ....     0.209881652 Eh/bohr
Maximum allowed component of the step   ....  0.300
Current trust radius                    ....  0.300
Evaluating the initial hessian          ....  (Almloef) done
Projecting the Hessian                  .... done
Forming the augmented Hessian           .... done
Diagonalizing the augmented Hessian     .... done
Last element of RFO vector              ....  0.806178668
Lowest eigenvalues of augmented Hessian:
 -0.107836658  0.026520095  0.032479607  0.038571375  0.043221061
Length of the computed step             ....  0.733921887
Warning: the length of the step is outside the trust region - taking restricted step instead
The input lambda is                     ....     0.025518
   iter:   5  x=   -0.153099  g=    8.796130 f(x)=     0.641523
   iter:  10  x=   -0.396663  g=    0.366590 f(x)=     0.000160
The output lambda is                    ....    -0.396663 (13 iterations)
The final length of the internal step   ....  0.300000000
Converting the step to Cartesian space:
 Initial RMS(Int)=    0.0210042013
Transforming coordinates:
 Iter   0:  RMS(Cart)=    0.0415712097 RMS(Int)=    0.0210062237
done
Storing new coordinates                 .... done

                                .--------------------.
          ----------------------|Geometry convergence|-------------------------
          Item                value                   Tolerance       Converged
          ---------------------------------------------------------------------
          RMS gradient        0.0104009545            0.0001000000      NO
          MAX gradient        0.0476286508            0.0003000000      NO
          RMS step            0.0210042013            0.0020000000      NO
          MAX step            0.0967240579            0.0040000000      NO
          -------------------------------------------------------------------------
          ........................................................
          Max(Bonds)      0.0512      Max(Angles)    1.09
          Max(Dihed)        1.43      Max(Improp)    0.00
          ---------------------------------------------------------------------

The optimization has not yet converged - more geometry cycles are needed


    ---------------------------------------------------------------------------
                         Redundant Internal Coordinates
                            (Angstroem and degrees)

        Definition                    Value    dE/dq     Step     New-Value
    ----------------------------------------------------------------------------
     1. B(B   2,B   1)                1.8734  0.029817 -0.0299    1.8435   
     2. B(B   3,B   1)                1.9623  0.026249 -0.0272    1.9351   
     3. B(B   4,B   2)                1.8295  0.030008 -0.0299    1.7997   
     4. B(B   5,B   0)                2.0428  0.022247 -0.0241    2.0187   
     5. B(B   6,B   2)                1.9209  0.040783 -0.0424    1.8785   
     6. B(B   6,B   4)                1.9940  0.040596 -0.0433    1.9507   
     7. B(B   6,B   0)                1.9537  0.034489 -0.0362    1.9175   
     8. B(B   6,B   5)                1.8125  0.030858 -0.0296    1.7829   
     9. B(B   7,B   5)                2.0934  0.033705 -0.0388    2.0546   
    10. B(B   7,B   3)                2.0065  0.047629 -0.0512    1.9553   
    11. B(B   7,B   0)                2.0671  0.034736 -0.0385    2.0286   
    12. B(B   8,B   4)                1.9916  0.022851 -0.0226    1.9689   
    13. B(B   8,B   3)                1.9637  0.014609 -0.0143    1.9495   
    14. B(B   8,B   1)                1.8982  0.023563 -0.0241    1.8741   
    15. B(B   9,B   3)                1.6122  0.003630 -0.0033    1.6089   
    16. B(B   9,B   8)                1.6485  0.002288 -0.0016    1.6469   
    17. B(B   9,B   4)                1.7246  0.020725 -0.0190    1.7056   
    18. B(B  10,B   9)                2.0496  0.030747 -0.0341    2.0154   
    19. B(B  10,B   5)                2.0535  0.032305 -0.0355    2.0180   
    20. B(B  11,B  10)                1.9273  0.020777 -0.0218    1.9055   
    21. B(B  11,B   7)                2.0025  0.034142 -0.0382    1.9643   
    22. B(B  11,B   3)                2.0825  0.025980 -0.0295    2.0530   
    23. A(B   5,B   0,B   6)           53.89  0.001682   -0.09     53.80   
    24. A(B   6,B   0,B   7)           99.04 -0.000654    0.15     99.19   
    25. A(B   5,B   0,B   7)           61.24  0.001369   -0.22     61.02   
    26. A(B   2,B   1,B   8)           73.95  0.003568   -0.40     73.55   
    27. A(B   2,B   1,B   3)          109.75  0.000435    0.01    109.76   
    28. A(B   3,B   1,B   8)           61.12 -0.003433    0.41     61.53   
    29. A(B   1,B   2,B   4)          101.45 -0.005119    0.56    102.01   
[...]
      dyz     :     0.014787
      dx2y2   :     0.014824
      dxy     :     0.013397

 10 B s       :     2.518439  s :     2.518439
      pz      :     0.842409  p :     2.377499
      px      :     0.799189
      py      :     0.735902
      dz2     :     0.013919  d :     0.074028
      dxz     :     0.013766
      dyz     :     0.015429
      dx2y2   :     0.016275
      dxy     :     0.014640

 11 B s       :     2.524448  s :     2.524448
      pz      :     0.802030  p :     2.373764
      px      :     0.730991
      py      :     0.840743
      dz2     :     0.015768  d :     0.073900
      dxz     :     0.014799
      dyz     :     0.013591
      dx2y2   :     0.014249
      dxy     :     0.015492



                     *******************************
                     * LOEWDIN POPULATION ANALYSIS *
                     *******************************

----------------------
LOEWDIN ATOMIC CHARGES
----------------------
   0 B :    0.037280
   1 B :    0.037928
   2 B :    0.037733
   3 B :   -0.039666
   4 B :   -0.037455
   5 B :   -0.035974
   6 B :   -0.039706
   7 B :   -0.037420
   8 B :   -0.035910
   9 B :    0.037258
  10 B :    0.038066
  11 B :    0.037867

-------------------------------
LOEWDIN REDUCED ORBITAL CHARGES
-------------------------------
  0 B s       :     2.572272  s :     2.572272
      pz      :     0.677514  p :     2.204145
      px      :     0.786749
      py      :     0.739883
      dz2     :     0.035224  d :     0.186303
      dxz     :     0.041784
      dyz     :     0.030334
      dx2y2   :     0.040797
      dxy     :     0.038164

  1 B s       :     2.570721  s :     2.570721
      pz      :     0.787078  p :     2.204691
      px      :     0.737135
      py      :     0.680479
      dz2     :     0.035254  d :     0.186659
      dxz     :     0.039066
      dyz     :     0.041846
      dx2y2   :     0.041049
      dxy     :     0.029444

  2 B s       :     2.571673  s :     2.571673
      pz      :     0.740818  p :     2.204300
      px      :     0.676830
      py      :     0.786651
      dz2     :     0.042891  d :     0.186294
      dxz     :     0.030357
      dyz     :     0.038698
      dx2y2   :     0.032442
      dxy     :     0.041905

  3 B s       :     2.668348  s :     2.668348
      pz      :     0.726933  p :     2.198750
      px      :     0.737446
      py      :     0.734371
      dz2     :     0.037781  d :     0.172567
      dxz     :     0.040909
      dyz     :     0.029564
      dx2y2   :     0.030068
      dxy     :     0.034245

  4 B s       :     2.665382  s :     2.665382
      pz      :     0.738071  p :     2.199087
      px      :     0.736144
      py      :     0.724872
      dz2     :     0.027521  d :     0.172986
      dxz     :     0.033862
      dyz     :     0.041242
      dx2y2   :     0.040078
      dxy     :     0.030283

  5 B s       :     2.663864  s :     2.663864
      pz      :     0.734857  p :     2.198966
      px      :     0.725096
      py      :     0.739013
      dz2     :     0.037307  d :     0.173144
      dxz     :     0.029201
      dyz     :     0.034658
      dx2y2   :     0.031258
      dxy     :     0.040720

  6 B s       :     2.667989  s :     2.667989
      pz      :     0.726740  p :     2.199032
      px      :     0.738049
      py      :     0.734242
      dz2     :     0.037778  d :     0.172686
      dxz     :     0.040947
      dyz     :     0.029581
      dx2y2   :     0.030083
      dxy     :     0.034296

  7 B s       :     2.665783  s :     2.665783
      pz      :     0.738029  p :     2.198763
      px      :     0.736117
      py      :     0.724617
      dz2     :     0.027480  d :     0.172873
      dxz     :     0.033876
      dyz     :     0.041206
      dx2y2   :     0.040039
      dxy     :     0.030272

  8 B s       :     2.663247  s :     2.663247
      pz      :     0.735034  p :     2.199357
      px      :     0.724578
      py      :     0.739746
      dz2     :     0.037327  d :     0.173306
      dxz     :     0.029222
      dyz     :     0.034725
      dx2y2   :     0.031281
      dxy     :     0.040751

  9 B s       :     2.572319  s :     2.572319
      pz      :     0.677721  p :     2.204235
      px      :     0.786649
      py      :     0.739865
      dz2     :     0.035208  d :     0.186189
      dxz     :     0.041782
      dyz     :     0.030325
      dx2y2   :     0.040758
      dxy     :     0.038116

 10 B s       :     2.570800  s :     2.570800
      pz      :     0.786935  p :     2.204544
      px      :     0.737160
      py      :     0.680449
      dz2     :     0.035276  d :     0.186591
      dxz     :     0.039025
      dyz     :     0.041816
      dx2y2   :     0.041026
      dxy     :     0.029448

 11 B s       :     2.571857  s :     2.571857
      pz      :     0.740607  p :     2.204056
      px      :     0.676698
      py      :     0.786751
      dz2     :     0.042845  d :     0.186221
      dxz     :     0.030367
      dyz     :     0.038682
      dx2y2   :     0.032422
      dxy     :     0.041906



                      *****************************
                      * MAYER POPULATION ANALYSIS *
                      *****************************

  NA   - Mulliken gross atomic population
  ZA   - Total nuclear charge
  QA   - Mulliken gross atomic charge
  VA   - Mayer's total valence
  BVA  - Mayer's bonded valence
  FA   - Mayer's free valence

  ATOM       NA         ZA         QA         VA         BVA        FA
  0 B      4.9715     5.0000     0.0285     4.3319     4.3319     0.0000
  1 B      4.9696     5.0000     0.0304     4.3370     4.3370     0.0000
  2 B      4.9725     5.0000     0.0275     4.3377     4.3377     0.0000
  3 B      5.0313     5.0000    -0.0313     3.7531     3.7531     0.0000
  4 B      5.0280     5.0000    -0.0280     3.7684     3.7684     0.0000
  5 B      5.0273     5.0000    -0.0273     3.7806     3.7806     0.0000
  6 B      5.0306     5.0000    -0.0306     3.7534     3.7534    -0.0000
  7 B      5.0289     5.0000    -0.0289     3.7687     3.7687    -0.0000
  8 B      5.0260     5.0000    -0.0260     3.7803     3.7803    -0.0000
  9 B      4.9723     5.0000     0.0277     4.3331     4.3331    -0.0000
 10 B      4.9700     5.0000     0.0300     4.3373     4.3373     0.0000
 11 B      4.9721     5.0000     0.0279     4.3357     4.3357     0.0000

  Mayer bond orders larger than 0.100000
B(  0-B ,  1-B ) :   0.7062 B(  0-B ,  2-B ) :   0.7087 B(  0-B ,  3-B ) :   0.1613 
B(  0-B ,  4-B ) :   0.1606 B(  0-B ,  5-B ) :   0.8489 B(  0-B ,  6-B ) :   0.5430 
B(  0-B ,  7-B ) :   0.5445 B(  0-B ,  8-B ) :   0.1781 B(  0-B ,  9-B ) :   0.1887 
B(  0-B , 10-B ) :   0.1460 B(  0-B , 11-B ) :   0.1460 B(  1-B ,  2-B ) :   0.7042 
B(  1-B ,  3-B ) :   0.8298 B(  1-B ,  4-B ) :   0.1595 B(  1-B ,  5-B ) :   0.1594 
B(  1-B ,  6-B ) :   0.1749 B(  1-B ,  7-B ) :   0.5605 B(  1-B ,  8-B ) :   0.5615 
B(  1-B ,  9-B ) :   0.1461 B(  1-B , 10-B ) :   0.1896 B(  1-B , 11-B ) :   0.1455 
B(  2-B ,  3-B ) :   0.1615 B(  2-B ,  4-B ) :   0.8400 B(  2-B ,  5-B ) :   0.1605 
B(  2-B ,  6-B ) :   0.5514 B(  2-B ,  7-B ) :   0.1769 B(  2-B ,  8-B ) :   0.5529 
B(  2-B ,  9-B ) :   0.1468 B(  2-B , 10-B ) :   0.1459 B(  2-B , 11-B ) :   0.1889 
B(  3-B ,  4-B ) :   0.2638 B(  3-B ,  5-B ) :   0.2609 B(  3-B ,  6-B ) :   0.3205 
B(  3-B ,  7-B ) :   0.2428 B(  3-B ,  8-B ) :   0.2446 B(  3-B ,  9-B ) :   0.5435 
B(  3-B , 10-B ) :   0.1745 B(  3-B , 11-B ) :   0.5499 B(  4-B ,  5-B ) :   0.2595 
B(  4-B ,  6-B ) :   0.2423 B(  4-B ,  7-B ) :   0.3127 B(  4-B ,  8-B ) :   0.2483 
B(  4-B ,  9-B ) :   0.5444 B(  4-B , 10-B ) :   0.5607 B(  4-B , 11-B ) :   0.1766 
B(  5-B ,  6-B ) :   0.2450 B(  5-B ,  7-B ) :   0.2476 B(  5-B ,  8-B ) :   0.3067 
B(  5-B ,  9-B ) :   0.1777 B(  5-B , 10-B ) :   0.5618 B(  5-B , 11-B ) :   0.5526 
B(  6-B ,  7-B ) :   0.2635 B(  6-B ,  8-B ) :   0.2610 B(  6-B ,  9-B ) :   0.1615 
B(  6-B , 10-B ) :   0.8297 B(  6-B , 11-B ) :   0.1608 B(  7-B ,  8-B ) :   0.2591 
B(  7-B ,  9-B ) :   0.1605 B(  7-B , 10-B ) :   0.1590 B(  7-B , 11-B ) :   0.8417 
B(  8-B ,  9-B ) :   0.8485 B(  8-B , 10-B ) :   0.1597 B(  8-B , 11-B ) :   0.1600 
B(  9-B , 10-B ) :   0.7061 B(  9-B , 11-B ) :   0.7093 B( 10-B , 11-B ) :   0.7044 


-------
TIMINGS
-------

Total SCF time: 0 days 0 hours 0 min 6 sec 

Total time                  ....       6.018 sec
Sum of individual times     ....       5.619 sec  ( 93.4%)

SCF preparation             ....       0.601 sec  ( 10.0%)
Fock matrix formation       ....       4.462 sec  ( 74.2%)
  Startup                   ....       0.012 sec  (  0.3% of F)
  Split-RI-J                ....       1.460 sec  ( 32.7% of F)
  XC integration            ....       3.060 sec  ( 68.6% of F)
    XC Preparation          ....       0.000 sec  (  0.0% of XC)
    Basis function eval.    ....       0.581 sec  ( 19.0% of XC)
    Density eval.           ....       0.453 sec  ( 14.8% of XC)
    XC-Functional eval.     ....       0.067 sec  (  2.2% of XC)
    XC-Potential eval.      ....       0.583 sec  ( 19.1% of XC)
Diagonalization             ....       0.000 sec  (  0.0%)
Density matrix formation    ....       0.061 sec  (  1.0%)
Total Energy calculation    ....       0.039 sec  (  0.6%)
Population analysis         ....       0.087 sec  (  1.4%)
Orbital Transformation      ....       0.027 sec  (  0.5%)
Orbital Orthonormalization  ....       0.000 sec  (  0.0%)
DIIS solution               ....       0.014 sec  (  0.2%)
SOSCF solution              ....       0.327 sec  (  5.4%)
Finished LeanSCF after   6.2 sec

Maximum memory used throughout the entire LEANSCF-calculation: 11.2 MB


-------------------------------------------------------------------------------
                          DFT DISPERSION CORRECTION                            
                                                                               
                              DFTD3 V3.1  Rev 1                                
                          USING Becke-Johnson damping                          
-------------------------------------------------------------------------------
The BP86 functional is recognized
Active option DFTDOPT                   ...         4   

molecular C6(AA) [au] = 4036.536166 


            DFT-D V3
 parameters
 s6 scaling factor         :     1.0000 
 a1 scaling factor         :     0.3946 
 s8 scaling factor         :     3.2822 
 a2 scaling factor         :     4.8516 
 ad hoc parameters k1-k3   :    16.0000     1.3333    -4.0000 

 Edisp/kcal,au: -23.925421761831  -0.038127582449 
 E6   /kcal   :  -6.812786816 
 E8   /kcal   : -17.112634946 
 % E8         :  71.524903997 

-------------------------   ----------------
Dispersion correction           -0.038127582
-------------------------   ----------------


-------------------------   --------------------
FINAL SINGLE POINT ENERGY      -297.634961732746
-------------------------   --------------------

                                *** OPTIMIZATION RUN DONE ***



           ************************************************************
           *        Program running with 8 parallel MPI-processes     *
           *              working on a common directory               *
           ************************************************************

------------------------------------------------------------------------------
                              ORCA PROPERTY CALCULATIONS
------------------------------------------------------------------------------

GBWName                                 ... icosahedron_nn2.00_perturb2.gbw
Number of atoms                         ...     12
Number of basis functions               ...    168
Max core memory                         ...   2500 MB

Electric properties:
Dipole moment                           ... YES
Quadrupole moment                       ...  NO
Static polarizability (Dipole/Dipole)   ...  NO
Static polarizability (Dipole/Quad.)    ...  NO
Static polarizability (Quad./Quad.)     ...  NO
Static polarizability (Velocity)        ...  NO
Static hyperpolarizability              ...  NO

Atomic electric properties:
Dipole moment                           ...  NO
Quadrupole moment                       ...  NO
Static polarizability                   ...  NO

Choice of electric origin               ... Center of mass
Position of electric origin             ...    -0.102284     0.038098     0.087772

General magnetic properties:
Magnetizability                         ...  NO

EPR properties:
g-Tensor (aka g-matrix)                 ...  NO
Zero-Field splitting spin-orbit         ...  NO
Zero-field splitting spin-spin          ...  NO
Hyperfine couplings                     ...  NO (   0 nuclei)
Quadrupole couplings                    ...  NO (   0 nuclei)
Contact density                         ...  NO (   0 nuclei)

NMR properties:
Chemical shifts                         ...  NO (   0 nuclei)
Spin-rotation constants                 ...  NO (   0 nuclei)
Spin-spin couplings                     ...  NO (   0 nuclei,    0 pairs)

Choice of magnetic origin               ... GIAO
Position of magnetic origin             ...     0.000000     0.000000     0.000000

Properties with geometric perturbations:
SCF Hessian                             ...  NO
IR spectrum                             ...  NO
VCD spectrum                            ...  NO
X-ray spectroscopy properties:
SCF XES/XAS/RIXS spectra                ...  NO

SCF SOC stabilization energy            ...  NO
Diagonal Born-Oppenheimer correction    ...  NO

-------------
DIPOLE MOMENT
-------------

Method             : SCF
Type of density    : Electron Density
Multiplicity       :   1
Irrep              :   0
Energy             :  -297.5968341502972407 Eh
Basis              : AO
                                X                 Y                 Z
Electronic contribution:     -0.002356629       0.001415561       0.000168914
Nuclear contribution   :      0.000000000       0.000000000      -0.000000000
                        -----------------------------------------
Total Dipole Moment    :     -0.002356629       0.001415561       0.000168914
                        -----------------------------------------
Magnitude (a.u.)       :      0.002754278
Magnitude (Debye)      :      0.007000817



--------------------
Rotational spectrum 
--------------------
 
Rotational constants in cm-1:             0.074535             0.074432             0.070823 
Rotational constants in MHz :          2234.499979          2231.424446          2123.206955 

Dipole components along the rotational axes: 
x,y,z [a.u.] :     0.001173    -0.002439    -0.000513 
x,y,z [Debye]:     0.002982    -0.006199    -0.001303 

 

Dipole moment calculation done in   0.0 sec 

Maximum memory used throughout the entire PROP-calculation: 8.9 MB

--------------------------------
SUGGESTED CITATIONS FOR THIS RUN
--------------------------------

Below you find a list of papers that are relevant to this ORCA run
We neither can nor want to force you to cite these papers, but we appreciate if you do
You receive ORCA, which is the product of decades of hard work by many enthusiastic individuals, for free
The only thing we kindly ask in return is that you cite our papers,
We deeply appreciate it, if you show your appreciation for ORCA by not just citing the generic ORCA reference.

Please note that relegating all ORCA citations to the supporting information does *not* help us.
SI sections are not indexed - citations you put there will not count into any citation statistics
But we need these citations in order to attract the funding resources that allow us to do what we are doing

Therefore, if you are a happy ORCA user, please consider citing a few of the papers listed below in the main body of your paper

In addition to the list printed below, the program has created the file icosahedron_nn2.00_perturb2.bibtex that contains the list in bibtex format
You can import this file easily into all common literature databanks and citation aid programs

It goes without saying that in many instances, there are alternative algorithms to achieve similar
results as the ones you have gotten from ORCA. It is, of course, also the case that in some instances
ORCA just re-implements algorithms worked out by others. We are fully aware of that and we are also
fully appreciative of our colleagues work. Hence this citation list should not be read as indicating
that the listed papers, which are focused on our own work, are the only ones worth citing. It simply
meant to make it easier for users to cite ORCA specific papers. It is not a substitute for doing your
own literature research and citing the relevant literature in a scientifically appropriate manner.

List of essential papers. We consider these as the minimum necessary citations

  1. Neese, F.
     Software update: the ORCA program system, version 6.0
     WIRES Comput. Molec. Sci. 2025 15(1), e70019
     doi.org/10.1002/wcms.70019

List of papers to cite with high priority. The work reported in these papers was absolutely
necessary for this run to complete.
Our perspective: the developers of density functionals and basis sets usually get cited in chemistry papers
Good! But without the algorithms to do something with them, the functionals or basis sets would not do anything.
Hence, in our opinion, the algorithm design and method developments papers are equally worthy of getting cited

  1. Neese, F.
     An improvement of the resolution of the identity approximation for the formation of the Coulomb matrix
     J. Comp. Chem. 2003 24(14), 1740-1747
     doi.org/10.1002/jcc.10318
  2. Grimme, S.; Antony, J.; Ehrlich, S.; Krieg, H.
     A consistent and accurate ab initio parametrization of density functional dispersion correction (DFT-D) for the 94 elements H-Pu
     J. Chem. Phys. 2010 132 , 154104
     doi.org/10.1063/1.3382344
  3. Grimme, S.; Ehrlich, S.; Goerigk, L.
     Effect of the damping function in dispersion corrected density functional theory
     J. Comput. Chem. 2011 32(7), 1456-1465
     doi.org/10.1002/jcc.21759
  4. Neese, F.
     The SHARK Integral Generation and Digestion System
     J. Comp. Chem. 2022 44(3), 381
     doi.org/10.1002/jcc.26942

List of suggested additional citations. These are papers that are important in the 'surrounding' of 
of this run, or papers that preceded the highly important papers. If you like your results we are grateful for a citation.

  1. Neese, F.
     The ORCA program system
     WIRES Comput. Molec. Sci. 2012 2(1), 73-78
     doi.org/10.1002/wcms.81
  2. Neese, F.
     Software update: the ORCA program system, version 4.0
     WIRES Comput. Molec. Sci. 2018 8(1), 1-6
     doi.org/10.1002/wcms.1327
  3. Neese, F.; Wennmohs, F.; Becker, U.; Riplinger, C.
     The ORCA quantum chemistry program package
     J. Chem. Phys. 2020 152(22), 224108
     doi.org/10.1063/5.0004608
  4. Neese, F.
     Software update: The ORCA program system—Version 5.0
     WIRES Comput. Molec. Sci. 2022 12(1), e1606
     doi.org/10.1002/wcms.1606

List of optional additional citations

  1. Neese, F.
     Approximate second-order SCF convergence for spin unrestricted wavefunctions
     Chem. Phys. Lett. 2000 325(1-3), 93-98
     doi.org/10.1016/s0009-2614(00)00662-x

Timings for individual modules:

Sum of individual times          ...      375.858 sec (=   6.264 min)
Startup calculation              ...       39.759 sec (=   0.663 min)  10.6 %
SCF iterations                   ...      277.863 sec (=   4.631 min)  73.9 %
Property calculations            ...        0.838 sec (=   0.014 min)   0.2 %
SCF Gradient evaluation          ...       57.065 sec (=   0.951 min)  15.2 %
Geometry relaxation              ...        0.333 sec (=   0.006 min)   0.1 %
                             ****ORCA TERMINATED NORMALLY****
TOTAL RUN TIME: 0 days 0 hours 6 minutes 34 seconds 498 msec
