
                                 *****************
                                 * O   R   C   A *
                                 *****************

                                            #,                                       
                                            ###                                      
                                            ####                                     
                                            #####                                    
                                            ######                                   
                                           ########,                                 
                                     ,,################,,,,,                         
                               ,,#################################,,                 
                          ,,##########################################,,             
                       ,#########################################, ''#####,          
                    ,#############################################,,   '####,        
                  ,##################################################,,,,####,       
                ,###########''''           ''''###############################       
              ,#####''   ,,,,##########,,,,          '''####'''          '####       
            ,##' ,,,,###########################,,,                        '##       
           ' ,,###''''                  '''############,,,                           
         ,,##''                                '''############,,,,        ,,,,,,###''
      ,#''                                            '''#######################'''  
     '                                                          ''''####''''         
             ,#######,   #######,   ,#######,      ##                                
            ,#'     '#,  ##    ##  ,#'     '#,    #''#        ,####,    ,#,          
            ##       ##  ##   ,#'  ##            #'  '#       #'       ,# #          
            ##       ##  #######   ##           ,######,      #####,      #          
            '#,     ,#'  ##    ##  '#,     ,#' ,#      #,     #,   #      #          
             '#######'   ##     ##  '#######'  #'      '#     '####' #    #          



                #########################################################
                #                        -***-                          #
                #          Department of theory and spectroscopy        #
                #                                                       #
                #                      Frank Neese                      #
                #                                                       #
                #     Directorship, Architecture, Infrastructure        #
                #                    SHARK, DRIVERS                     #
                #        Core code/Algorithms in most modules           #
                #                                                       #
                #        Max Planck Institute fuer Kohlenforschung      #
                #                Kaiser Wilhelm Platz 1                 #
                #                 D-45470 Muelheim/Ruhr                 #
                #                      Germany                          #
                #                                                       #
                #                  All rights reserved                  #
                #                        -***-                          #
                #########################################################


                         Program Version 6.1.1  -  RELEASE   -
                                (GIT: $487d211c$)
                          ($2025-11-21 10:33:24 +0100$)
                                                                         
                                  - NO-DMRG VERSION -                    
                                                                         


 With contributions from (in alphabetic order):
[Max-Planck-Institut fuer Kohlenforschung]                               
  Daniel Aravena         : Magnetic Suceptibility                        
  Michael Atanasov       : Ab Initio Ligand Field Theory (pilot matlab implementation)
  Alexander A. Auer      : GIAO ZORA, VPT2 properties, NMR spectrum      
  Ute Becker             : All parallelization in ORCA, NUMFREQ, NUMCALC 
  Giovanni Bistoni       : ED, misc. LED, open-shell LED, HFLD           
  Dmytro Bykov           : pre 5.0 version of the SCF Hessian            
  Marcos Casanova-Páez   : Triplet and SCS-CIS(D). UHF-(DLPNO)-IP/EA/STEOM-CCSD. UHF-CVS-IP/STEOM-CCSD   
  Vijay G. Chilkuri      : MRCI spin determinant printing, contributions to CSF-ICE 
  Pauline Colinet        : FMM embedding                                 
  Dipayan Datta          : RHF DLPNO-CCSD density                        
  Achintya Kumar Dutta   : EOM-CC, STEOM-CC                              
  Nicolas Foglia         : Exact transition moments, OPA infrastructure, MCD improvements    
  Dmitry Ganyushin       : Spin-Orbit,Spin-Spin,Magnetic field MRCI      
  Miquel Garcia-Rates    : C-PCM and meta-GGA Hessian, CCSD/C-PCM, Gaussian charge scheme 
  Tiago L. C. Gouveia    : GS-ROHF, GS-ROCIS                             
  Yang Guo               : DLPNO-NEVPT2, F12-NEVPT2, CIM, IAO-localization        
  Andreas Hansen         : Spin unrestricted coupled pair/coupled cluster methods 
  Ingolf Harden          : AUTO-CI MPn and infrastructure                
  Benjamin Helmich-Paris : MC-RPA, TRAH-(SCF,CASSCF), AVAS, COSX integrals, SCF dyn. polar., MC-PDFT, srDFT 
  Lee Huntington         : MR-EOM, pCC                                   
  Robert Izsak           : Overlap fitted RIJCOSX, COSX-SCS-MP3, EOM     
  Riya Kayal             : Wick's Theorem for AUTO-CI, AUTO-CI UHF-CCSDT 
  Emily Kempfer          : AUTO-CI RHF CISDT and CCSDT, approximate NEVPT4
  Christian Kollmar      : KDIIS, OOCD, Brueckner-CCSD(T), CCSD density, CASPT2, CASPT2-K, improved NEVPT2 
  Axel Koslowski         : Symmetry handling                             
  Simone Kossmann        : meta-GGA functionals, TD-DFT gradient, OOMP2, (MP2 Hessian; deprecated post 5.0) 
  Lucas Lang             : DCDCAS, Hyperfine gauge corrections, ICE-SOC+SSC
  Marvin Lechner         : AUTO-CI (C++ implementation), FIC-MRCC        
  Spencer Leger          : CASSCF response                               
  Dagmar Lenk            : GEPOL surface, SMD, ORCA-2-JSON               
  Dimitrios Liakos       : Extrapolation schemes; Compound Job, Property file
  Dimitrios Manganas     : Further ROCIS development; embedding schemes. LFT, Crystal Embedding 
  Dimitrios Pantazis     : SARC Basis sets                               
  Anastasios Papadopoulos: AUTO-CI, single reference methods and gradients 
  Taras Petrenko         : pre 6.0 DFT Hessian and TD-DFT gradient,  ECA, NRVS 
  Petra Pikulova         : Analytic Raman intensities                    
  Peter Pinski           : DLPNO-MP2, DLPNO-MP2 Gradient                 
  Shashank Vittal Rao    : ES-AILFT, MagRelax                            
  Christoph Reimann      : Effective Core Potentials                     
  Marius Retegan         : Local ZFS, SOC                                
  Christoph Riplinger    : Optimizer, TS searches, QM/MM, DLPNO-CCSD(T), (RO)-DLPNO pert. Triples 
  Michael Roemelt        : Original ROCIS implementation, recursive CI coupling coefficients
  Masaaki Saitow         : Open-shell DLPNO-CCSD energy and density      
  Barbara Sandhoefer     : DKH picture change effects                    
  Yorick L. A. Schmerwitz: GMF and freeze-and-release deltaSCF, NEB S-IDPP initial path                    
  Kantharuban Sivalingam : CASSCF convergence/infrastructure, NEVPT2, NEVPT3, NEVPT4(SD), FIC-MRCI and CEPA variants
  Bernardo de Souza      : ESD, SOC TD-DFT                               
  Georgi L. Stoychev     : AutoAux, RI-MP2 NMR, DLPNO-MP2 response, X2C  
  Van Anh Tran           : RI-MP2 g-tensors                              
  Willem Van den Heuvel  : Paramagnetic NMR                              
  Zikuan Wang            : NOTCH, Electric field optimization            
  Frank Wennmohs         : Technical directorship and infrastructure     
  Hang Xu                : AUTO-CI-Response properties                   
                                                                         
[FACCTs GmbH]                                                            
  Markus Bursch, Nicolas Foglia, Miquel Garcia-Rates, Ingolf Harden, Hagen Neugebauer, Anastasios Papadopoulos, 
  Christoph Riplinger, Bernardo de Souza, Georgi L. Stoychev                                                    
                                                                 
  APM, various basis sets, CI-OPT, improved COSX, DLPNO-Multilevel,           
  DOCKER, DRACO, updates on ESD, Fragmentator, GOAT, IRC, LR-CPCM, L-BFGS, MBIS, meta-GGA TD-DFT gradient, ML-optimized integration grids, 
  MM, NACMEs, nearIR, NEB, NEB-TS, NL-DFT gradient (VV10), 2- and 3-layer-ONIOM, interface openCOSMO-RS, QMMM,   
  Crystal-QMMM, RESP, rigid body optimization, SF, symmetry and pop. for TD-DFT, various functionals, SOLVATOR                                   
                                                                         
[Other institutions]                                                     
  V. Asgeirsson          : NEB                                           
  Christoph Bannwarth    : sTDA-DFT, sTD-DFT, PBEh-3c, B97-3c, D3        
  Giovanni Bistoni       : ETS/NOCV, ADLD/ADEX, COVALED                  
  Martin Brehm           : Molecular dynamics                            
  Ronald Cardenas        : ETS/NOCV                                      
  Martina Colucci        : COVALED                                       
  Sebastian Ehlert       : rSCAN, r2SCAN, r2SCAN-3c, D4, dhf basis sets  
  Marvin Friede          : D4 for Fr, Ra, Ac-Lr                          
  Lars Goerigk           : TD-DFT with DH, B97 family of functionals     
  Stefan Grimme          : VdW corrections, initial TS optimization, DFT functionals, gCP, sTDA/sTD-DF 
  Waldemar Hujo          : DFT-NL                                        
  H. Jonsson             : NEB                                           
  Holger Kruse           : gCP                                           
  Marcel Mueller         : wB97X-3c, vDZP basis set                      
  Hagen Neugebauer       : wr2SCAN, Native XTB                           
  Gianluca Regni         : ADLD/ADEX                                     
  Tobias Risthaus        : pre 6.0 range-separated hybrid DFT and stability analysis
  Lukas Wittmann         : regularized MP2, r2SCAN double-hybrids, wr2SCAN        
                                                                         
We gratefully acknowledge several colleagues who have allowed us to      
interface, adapt or use parts of their codes:                            
  Ed Valeev, F. Pavosevic, A. Kumar             : LibInt (2-el integral package), F12 methods 
  Garnet Chan, S. Sharma, J. Yang, R. Olivares  : DMRG                   
  Ulf Ekstrom                                   : XCFun DFT Library      
  Mihaly Kallay                                 : mrcc  (arbitrary order and MRCC methods)
  Frank Weinhold                                : gennbo (NPA and NBO analysis)           
  Simon Mueller                                 : openCOSMO-RS                            
  Christopher J. Cramer and Donald G. Truhlar   : smd solvation model                     
  S Lehtola, MJT Oliveira, MAL Marques          : LibXC Library                           
  Liviu Ungur et al                             : ANISO software                          


 Your calculation uses the libint2 library for the computation of 2-el integrals
 For citations please refer to: http://libint.valeyev.net

 Your ORCA version has been built with support for libXC version: 7.0.0
 For citations please refer to: https://libxc.gitlab.io

 This ORCA versions uses:
   CBLAS   interface :  Fast vector & matrix operations
   LAPACKE interface :  Fast linear algebra routines
   SCALAPACK package :  Parallel linear algebra routines
   Shared memory     :  Shared parallel matrices
   BLAS/LAPACK       :  OpenBLAS 0.3.29  USE64BITINT DYNAMIC_ARCH NO_AFFINITY Zen SINGLE_THREADED
        Core in use  :  Zen
   Copyright (c) 2011-2014, The OpenBLAS Project


  ***********************************
  * Starting time: Thu Apr 23 10:27:26 2026
  * Host name:     vmi3233575
  * Process ID:    1129013
  * Working dir.:  /root/b12_scan/jobs/cuboctahedron_nn2.00_perturb2
  ***********************************

NOTE: MaxCore=2500 MB was set to SCF,MP2,MDCI,CIPSI,MRCI,RASCI and CIS
      => If you want to overwrite this, your respective input block should be placed after the MaxCore statement
Your calculation utilizes the atom-pairwise dispersion correction
with the Becke-Johnson damping scheme (D3BJ)


================================================================================

----- Orbital basis set information -----
Your calculation utilizes the basis: def2-SVP
   F. Weigend and R. Ahlrichs, Phys. Chem. Chem. Phys. 7, 3297 (2005).

----- AuxJ basis set information -----
Your calculation utilizes the auxiliary basis: def2/J
   H-Rn: F. Weigend, Phys. Chem. Chem. Phys. 8, 1057 (2006).
   Fr-Lr: K. Eichkorn, F. Weigend, O. Treutler, R. Ahlrichs; Theor. Chem. Acc. 97, 119 (1997).

================================================================================
                                        WARNINGS
                       Please study these warnings very carefully!
================================================================================


WARNING: Geometry Optimization
  ===> : Switching off AutoStart
         For restart on a previous wavefunction, please use MOREAD

================================================================================
                                       INPUT FILE
================================================================================
NAME = cuboctahedron_nn2.00_perturb2.inp
|  1> ! BP86 def2-SVP def2/J RI Opt TightSCF D3BJ
|  2> ! SlowConv
|  3> 
|  4> %pal nprocs 8 end
|  5> %maxcore 2500
|  6> 
|  7> %geom
|  8>   MaxIter 300
|  9> end
| 10> 
| 11> * xyz 0 1
| 12> B      0.02835801     -1.49262583     -1.47617309
| 13> B     -1.78043367      0.26995611     -1.24258868
| 14> B     -1.46302699     -1.29814257      0.04218160
| 15> B     -0.08307343     -1.26757844      1.36763008
| 16> B     -1.46353715     -0.11882201      1.48245727
| 17> B     -1.42909327      1.49600687     -0.09107785
| 18> B      0.01902418      1.28037246     -1.28799382
| 19> B      1.44241883      0.04958565     -1.35263798
| 20> B      1.26259994     -1.29673641      0.30850542
| 21> B     -0.24576638      1.15480184      1.18848885
| 22> B      1.54043240      0.01930735      1.57596493
| 23> B      1.52257819      1.44579933      0.04260572
| 24> *
| 25> 
| 26>                          ****END OF INPUT****
================================================================================

                       *****************************
                       * Geometry Optimization Run *
                       *****************************

Geometry optimization settings:
Update method            Update   .... BFGS
Choice of coordinates    CoordSys .... (2022) Redundant Internals
Initial Hessian          InHess   .... Almloef's Model
Max. no of cycles        MaxIter  .... 300

Convergence Tolerances:
Energy Change            TolE     ....  5.0000e-06 Eh
Max. Gradient            TolMAXG  ....  3.0000e-04 Eh/bohr
RMS Gradient             TolRMSG  ....  1.0000e-04 Eh/bohr
Max. Displacement        TolMAXD  ....  4.0000e-03 bohr
RMS Displacement         TolRMSD  ....  2.0000e-03 bohr
Strict Convergence                .... False

------------------------------------------------------------------------------
                        ORCA OPTIMIZATION COORDINATE SETUP
------------------------------------------------------------------------------

The optimization will be done in redundant internal coordinates (2022)
Making redundant internal coordinates   ...  (2022 redundants) done
Evaluating the initial hessian          ...  (Almloef) done
Evaluating the coordinates              ...  done
Calculating the B-matrix                .... done
Calculating the G-matrix                .... done
The number of degrees of freedom        ....  111

    -----------------------------------------------------------------
                    Redundant Internal Coordinates


    -----------------------------------------------------------------
         Definition                    Initial Value    Approx d2E/dq
    -----------------------------------------------------------------
      1. B(B   2,B   1)                  2.0519         0.073679   
      2. B(B   3,B   2)                  1.9136         0.122444   
      3. B(B   4,B   3)                  1.7996         0.186169   
      4. B(B   4,B   2)                  1.8615         0.148293   
      5. B(B   5,B   1)                  1.7183         0.250936   
      6. B(B   6,B   5)                  1.8911         0.133029   
      7. B(B   6,B   1)                  2.0642         0.070417   
      8. B(B   7,B   6)                  1.8828         0.137116   
      9. B(B   7,B   0)                  2.0960         0.062659   
     10. B(B   8,B   3)                  1.7127         0.256144   
     11. B(B   9,B   5)                  1.7759         0.203061   
     12. B(B   9,B   4)                  1.7865         0.195353   
     13. B(B  10,B   8)                  1.8481         0.155755   
     14. B(B  10,B   3)                  2.0821         0.065937   
     15. B(B  11,B   6)                  2.0146         0.084507   
     16. B(B  11,B  10)                  2.0944         0.063037   
     17. B(B  11,B   7)                  1.9755         0.097559   
     18. A(B   5,B   1,B   6)           59.1522         0.268325   
     19. A(B   2,B   1,B   5)           95.3970         0.270173   
     20. A(B   2,B   1,B   6)          104.6551         0.224888   
     21. A(B   3,B   2,B   4)           56.9192         0.269433   
     22. A(B   1,B   2,B   4)           90.0146         0.249838   
     23. A(B   1,B   2,B   3)          122.2100         0.243014   
     24. A(B   2,B   3,B  10)          129.9003         0.239192   
     25. A(B   2,B   3,B   8)           97.9314         0.293193   
     26. A(B   8,B   3,B  10)           57.3005         0.266500   
     27. A(B   4,B   3,B  10)          101.3740         0.254133   
     28. A(B   2,B   3,B   4)           60.0809         0.278966   
     29. A(B   4,B   3,B   8)          130.7704         0.313505   
     30. A(B   2,B   4,B   3)           63.0000         0.287382   
     31. A(B   3,B   4,B   9)           85.5086         0.300152   
     32. A(B   2,B   4,B   9)          108.9145         0.289556   
     33. A(B   6,B   5,B   9)           85.6345         0.286407   
     34. A(B   1,B   5,B   9)          118.8153         0.316900   
     35. A(B   1,B   5,B   6)           69.5777         0.296096   
     36. A(B   7,B   6,B  11)           60.7997         0.251991   
     37. A(B   5,B   6,B  11)           98.2860         0.250878   
     38. A(B   1,B   6,B  11)          132.5530         0.229171   
     39. A(B   5,B   6,B   7)          132.4679         0.269619   
     40. A(B   1,B   6,B   7)          109.8647         0.245399   
     41. A(B   1,B   6,B   5)           51.2701         0.244332   
     42. A(B   6,B   7,B  11)           62.8977         0.257376   
     43. A(B   0,B   7,B  11)          126.0884         0.230027   
     44. A(B   0,B   7,B   6)           88.4515         0.241321   
     45. A(B   3,B   8,B  10)           71.4520         0.304622   
     46. A(B   4,B   9,B   5)           78.5411         0.304344   
     47. A(B   3,B  10,B   8)           51.2476         0.247599   
     48. A(B   8,B  10,B  11)           88.9474         0.245993   
     49. A(B   3,B  10,B  11)          109.9417         0.218236   
     50. A(B   6,B  11,B   7)           56.3026         0.239906   
     51. A(B   7,B  11,B  10)           92.0660         0.230219   
     52. A(B   6,B  11,B  10)          115.7214         0.225702   
     53. D(B   4,B   2,B   1,B   6)     72.3764         0.010000   
     54. D(B   3,B   2,B   1,B   5)    -36.9544         0.010000   
     55. D(B   3,B   2,B   1,B   6)     22.5378         0.010000   
     56. D(B   4,B   2,B   1,B   5)     12.8842         0.010000   
     57. D(B  10,B   3,B   2,B   1)    -13.5696         0.010000   
     58. D(B   8,B   3,B   2,B   1)    -67.0920         0.010000   
     59. D(B   8,B   3,B   2,B   4)   -132.8860         0.010000   
     60. D(B  10,B   3,B   2,B   4)    -79.3636         0.010000   
     61. D(B   4,B   3,B   2,B   1)     65.7940         0.010000   
     62. D(B   9,B   4,B   2,B   3)     74.4844         0.010000   
     63. D(B   2,B   4,B   3,B  10)    129.7282         0.010000   
     64. D(B   2,B   4,B   3,B   8)     73.3816         0.010000   
     65. D(B   9,B   4,B   2,B   1)    -55.0080         0.010000   
     66. D(B   9,B   4,B   3,B   2)   -113.8883         0.010000   
     67. D(B   3,B   4,B   2,B   1)   -129.4924         0.010000   
     68. D(B   9,B   4,B   3,B  10)     15.8399         0.010000   
     69. D(B   9,B   4,B   3,B   8)    -40.5066         0.010000   
     70. D(B   9,B   5,B   1,B   6)    -72.6909         0.010000   
     71. D(B   9,B   5,B   1,B   2)     31.1707         0.010000   
     72. D(B   6,B   5,B   1,B   2)    103.8615         0.010000   
     73. D(B  11,B   6,B   5,B   9)    -16.4252         0.010000   
     74. D(B   7,B   6,B   5,B   9)     41.2276         0.010000   
     75. D(B   1,B   6,B   5,B   9)    122.9724         0.010000   
     76. D(B  11,B   6,B   1,B   5)     60.9554         0.010000   
     77. D(B  11,B   6,B   1,B   2)    -26.5831         0.010000   
     78. D(B   7,B   6,B   5,B   1)    -81.7448         0.010000   
     79. D(B  11,B   6,B   5,B   1)   -139.3976         0.010000   
     80. D(B   7,B   6,B   1,B   5)    129.0862         0.010000   
     81. D(B   7,B   6,B   1,B   2)     41.5477         0.010000   
     82. D(B   5,B   6,B   1,B   2)    -87.5385         0.010000   
     83. D(B   0,B   7,B   6,B   1)      4.0651         0.010000   
     84. D(B  11,B   7,B   6,B   5)    -73.2773         0.010000   
     85. D(B  11,B   7,B   6,B   1)   -128.4487         0.010000   
     86. D(B   0,B   7,B   6,B  11)    132.5137         0.010000   
     87. D(B   0,B   7,B   6,B   5)     59.2365         0.010000   
     88. D(B  10,B   8,B   3,B   4)     75.8706         0.010000   
     89. D(B  10,B   8,B   3,B   2)    132.8578         0.010000   
     90. D(B   4,B   9,B   5,B   6)   -122.8249         0.010000   
     91. D(B   4,B   9,B   5,B   1)    -59.0183         0.010000   
     92. D(B   5,B   9,B   4,B   3)    125.8507         0.010000   
     93. D(B   5,B   9,B   4,B   2)     66.4013         0.010000   
     94. D(B  11,B  10,B   3,B   8)     71.5621         0.010000   
     95. D(B  11,B  10,B   3,B   4)    -59.9225         0.010000   
     96. D(B  11,B  10,B   3,B   2)      0.4089         0.010000   
     97. D(B   8,B  10,B   3,B   4)   -131.4846         0.010000   
     98. D(B  11,B  10,B   8,B   3)   -116.8825         0.010000   
     99. D(B   8,B  10,B   3,B   2)    -71.1532         0.010000   
    100. D(B   7,B  11,B  10,B   3)    -54.0565         0.010000   
    101. D(B   6,B  11,B  10,B   8)     46.8832         0.010000   
    102. D(B   6,B  11,B  10,B   3)     -0.8440         0.010000   
    103. D(B  10,B  11,B   7,B   6)    119.8629         0.010000   
    104. D(B  10,B  11,B   7,B   0)     54.1055         0.010000   
    105. D(B   6,B  11,B   7,B   0)    -65.7574         0.010000   
    106. D(B  10,B  11,B   6,B   7)    -74.1485         0.010000   
    107. D(B  10,B  11,B   6,B   5)     60.2974         0.010000   
    108. D(B  10,B  11,B   6,B   1)     16.7310         0.010000   
    109. D(B   7,B  11,B   6,B   5)    134.4459         0.010000   
    110. D(B   7,B  11,B  10,B   8)     -6.3293         0.010000   
    111. D(B   7,B  11,B   6,B   1)     90.8795         0.010000   
    -----------------------------------------------------------------

Number of atoms                         .... 12
Number of degrees of freedom            .... 111


         *************************************************************
         *                GEOMETRY OPTIMIZATION CYCLE   1            *
         *************************************************************
---------------------------------
CARTESIAN COORDINATES (ANGSTROEM)
---------------------------------
  B      0.028358   -1.492626   -1.476173
  B     -1.780434    0.269956   -1.242589
  B     -1.463027   -1.298143    0.042182
  B     -0.083073   -1.267578    1.367630
  B     -1.463537   -0.118822    1.482457
  B     -1.429093    1.496007   -0.091078
  B      0.019024    1.280372   -1.287994
  B      1.442419    0.049586   -1.352638
  B      1.262600   -1.296736    0.308505
  B     -0.245766    1.154802    1.188489
  B      1.540432    0.019307    1.575965
  B      1.522578    1.445799    0.042606

----------------------------
CARTESIAN COORDINATES (A.U.)
----------------------------
  NO LB      ZA    FRAG     MASS         X           Y           Z
   0 B     5.0000    0    10.810    0.053589   -2.820654   -2.789563
   1 B     5.0000    0    10.810   -3.364532    0.510143   -2.348152
   2 B     5.0000    0    10.810   -2.764720   -2.453134    0.079712
   3 B     5.0000    0    10.810   -0.156986   -2.395376    2.584446
   4 B     5.0000    0    10.810   -2.765684   -0.224541    2.801438
   5 B     5.0000    0    10.810   -2.700595    2.827043   -0.172112
   6 B     5.0000    0    10.810    0.035950    2.419553   -2.433956
   7 B     5.0000    0    10.810    2.725777    0.093703   -2.556115
   8 B     5.0000    0    10.810    2.385968   -2.450477    0.582991
   9 B     5.0000    0    10.810   -0.464431    2.182259    2.245918
  10 B     5.0000    0    10.810    2.910995    0.036486    2.978142
  11 B     5.0000    0    10.810    2.877256    2.732165    0.080513

--------------------------------
INTERNAL COORDINATES (ANGSTROEM)
--------------------------------
 B      0   0   0     0.000000000000     0.00000000     0.00000000
 B      1   0   0     2.536332808100     0.00000000     0.00000000
 B      2   1   0     2.051905247105    54.28656915     0.00000000
 B      3   2   1     1.913640422580   122.20998534    79.24199306
 B      4   3   2     1.799585146990    60.08088324    65.79400326
 B      2   1   3     1.718318286691   114.31464617    78.59663857
 B      6   2   1     1.891071174497    69.57767604    50.78269525
 B      7   6   2     1.882834928702   132.46785301   278.25522855
 B      4   3   2     1.712726496368    97.93141674   292.90796534
 B      6   2   1     1.775943225681   118.81530008   338.09183865
 B      9   4   3     1.848138431924    71.45195151   132.85782647
 B      8   7   6     1.975485546797    62.89771511   286.72271663

---------------------------
INTERNAL COORDINATES (A.U.)
---------------------------
 B      0   0   0     0.000000000000     0.00000000     0.00000000
 B      1   0   0     4.792974391789     0.00000000     0.00000000
 B      2   1   0     3.877538969785    54.28656915     0.00000000
 B      3   2   1     3.616256317478   122.20998534    79.24199306
 B      4   3   2     3.400723082483    60.08088324    65.79400326
 B      2   1   3     3.247150972754   114.31464617    78.59663857
 B      6   2   1     3.573606619551    69.57767604    50.78269525
 B      7   6   2     3.558042370628   132.46785301   278.25522855
 B      4   3   2     3.236584020446    97.93141674   292.90796534
 B      6   2   1     3.356046325930   118.81530008   338.09183865
 B      9   4   3     3.492475493911    71.45195151   132.85782647
 B      8   7   6     3.733126664966    62.89771511   286.72271663

---------------------
BASIS SET INFORMATION
---------------------
There are 1 groups of distinct atoms

 Group   1 Type B   : 7s4p1d contracted to 3s2p1d pattern {511/31/1}

Atom   0B    basis set group =>   1
Atom   1B    basis set group =>   1
Atom   2B    basis set group =>   1
Atom   3B    basis set group =>   1
Atom   4B    basis set group =>   1
Atom   5B    basis set group =>   1
Atom   6B    basis set group =>   1
Atom   7B    basis set group =>   1
Atom   8B    basis set group =>   1
Atom   9B    basis set group =>   1
Atom  10B    basis set group =>   1
Atom  11B    basis set group =>   1
---------------------------------
AUXILIARY/J BASIS SET INFORMATION
---------------------------------
There are 1 groups of distinct atoms

 Group   1 Type B   : 12s5p4d2f1g contracted to 6s4p3d1f1g pattern {711111/2111/211/2/1}

Atom   0B    basis set group =>   1
Atom   1B    basis set group =>   1
Atom   2B    basis set group =>   1
Atom   3B    basis set group =>   1
Atom   4B    basis set group =>   1
Atom   5B    basis set group =>   1
Atom   6B    basis set group =>   1
Atom   7B    basis set group =>   1
Atom   8B    basis set group =>   1
Atom   9B    basis set group =>   1
Atom  10B    basis set group =>   1
Atom  11B    basis set group =>   1


           ************************************************************
           *        Program running with 8 parallel MPI-processes     *
           *              working on a common directory               *
           ************************************************************
------------------------------------------------------------------------------
                             ORCA STARTUP CALCULATIONS
                           -- RI-GTO INTEGRALS CHOSEN --
------------------------------------------------------------------------------
------------------------------------------------------------------------------
                   ___                                                        
                  /   \      - P O W E R E D   B Y -                         
                 /     \                                                     
                 |  |  |   _    _      __       _____    __    __             
                 |  |  |  | |  | |    /  \     |  _  \  |  |  /  |          
                  \  \/   | |  | |   /    \    | | | |  |  | /  /          
                 / \  \   | |__| |  /  /\  \   | |_| |  |  |/  /          
                |  |  |   |  __  | /  /__\  \  |    /   |      \           
                |  |  |   | |  | | |   __   |  |    \   |  |\   \          
                \     /   | |  | | |  |  |  |  | |\  \  |  | \   \       
                 \___/    |_|  |_| |__|  |__|  |_| \__\ |__|  \__/        
                                                                              
                      - O R C A' S   B I G   F R I E N D -                    
                                      &                                       
                       - I N T E G R A L  F E E D E R -                       
                                                                              
 v1 FN, 2020, v2 2021, v3 2022-2024                                           
------------------------------------------------------------------------------


----------------------
SHARK INTEGRAL PACKAGE
----------------------

Number of atoms                             ...     12
Number of basis functions                   ...    168
Number of shells                            ...     72
Maximum angular momentum                    ...      2
Integral batch strategy                     ... SHARK/LIBINT Hybrid
RI-J (if used) integral strategy            ... SPLIT-RIJ (Revised 2003 algorithm where possible)
Printlevel                                  ...      1
Contraction scheme used                     ... SEGMENTED contraction
Prescreening option                         ... SCHWARTZ
   Thresh                                   ... 2.500e-11
   Tcut                                     ... 2.500e-12
   Tpresel                                  ... 2.500e-12 
Coulomb Range Separation                    ... NOT USED
Exchange Range Separation                   ... NOT USED
Multipole approximations                    ... NOT USED
Finite Nucleus Model                        ... NOT USED
CABS basis                                  ... NOT available
Auxiliary Coulomb fitting basis             ... AVAILABLE
   # of basis functions in Aux-J            ...    588
   # of shells in Aux-J                     ...    180
   Maximum angular momentum in Aux-J        ...      4
Auxiliary J/K fitting basis                 ... NOT available
Auxiliary Correlation fitting basis         ... NOT available
Auxiliary 'external' fitting basis          ... NOT available

Checking pre-screening integrals            ... done (  0.1 sec) Dimension = 72
   => SHARK Basis and OBASIS are compatible. Storing Pre-screening
Shell pair information
Shell pair cut-off parameter TPreSel        ...   2.5e-12
Total number of shell pairs                 ...      2628
Shell pairs after pre-screening             ...      2585
Total number of primitive shell pairs       ...     10596
Primitive shell pairs kept                  ...      7870
          la=0 lb=0:    623 shell pairs
          la=1 lb=0:    864 shell pairs
          la=1 lb=1:    300 shell pairs
          la=2 lb=0:    432 shell pairs
          la=2 lb=1:    288 shell pairs
          la=2 lb=2:     78 shell pairs

Checking whether 4 symmetric matrices of dimension 168 fit in memory
:Max Core in MB      =   2500.00
 MB in use           =      6.90
 MB left             =   2493.10
 MB needed           =      0.43
 Data fit in memory  = YES
Calculating RI/J V-Matrix + Cholesky decomp.... done (  0.0 sec)
Calculating Nuclear repulsion               ... done (  0.0 sec) ENN=    329.341020647342 Eh

Diagonalization of the overlap matrix:
Smallest eigenvalue                        ... 1.711e-04
Time for diagonalization                   ...    0.004 sec
Threshold for overlap eigenvalues          ... 1.000e-07
Number of eigenvalues below threshold      ... 0
Time for construction of square roots      ...    0.002 sec
Total time needed                          ...    0.008 sec

-------------------
DFT GRID GENERATION
-------------------

General Integration Accuracy     IntAcc      ... 4.388
Radial Grid Type                 RadialGrid  ... OptM3 with GC (2021)
Angular Grid (max. ang.)         AngularGrid ... 4 (Lebedev-302)
Angular grid pruning method      GridPruning ... 4 (adaptive)
Weight generation scheme         WeightScheme... mBecke (2022)
Basis function cutoff            BFCut       ... 1.0000e-11
Integration weight cutoff        WCut        ... 1.0000e-14
Partially contracted basis set               ... off
Rotationally invariant grid construction     ... off
Angular grids for H and He will be reduced by one unit

Total number of grid points                  ...    71062
Total number of batches                      ...     1118
Average number of points per batch           ...       63
Average number of grid points per atom       ...     5922
Grids setup in   0.8 sec
Initializing property integral containers    ... done (  0.0 sec)

SHARK setup successfully completed in   1.1 seconds

Maximum memory used throughout the entire STARTUP-calculation: 19.9 MB


           ************************************************************
           *        Program running with 8 parallel MPI-processes     *
           *              working on a common directory               *
           ************************************************************
-------------------------------------------------------------------------------
                                 ORCA GUESS
                   Start orbitals & Density for SCF / CASSCF
-------------------------------------------------------------------------------

------------
SCF SETTINGS
------------
Hamiltonian:
 Density Functional     Method          .... DFT(GTOs)
 Exchange Functional    Exchange        .... B88
   X-Alpha parameter    XAlpha          ....  0.666667
   Becke's b parameter  XBeta           ....  0.004200
 Correlation Functional Correlation     .... P86
 LDA part of GGA corr.  LDAOpt          .... PW91-LDA
 Gradients option       PostSCFGGA      .... off
   NL short-range parameter             ....  4.400000
 RI-approximation to the Coulomb term is turned on
   Number of AuxJ basis functions       .... 588


General Settings:
 Integral files         IntName         .... cuboctahedron_nn2.00_perturb2
 Hartree-Fock type      HFTyp           .... RHF
 Total Charge           Charge          ....    0
 Multiplicity           Mult            ....    1
 Number of Electrons    NEL             ....   60
 Basis Dimension        Dim             ....  168
 Nuclear Repulsion      ENuc            ....    329.3410206473 Eh

Convergence Acceleration:
 AO-DIIS                CNVDIIS         .... on
   Start iteration      DIISMaxIt       ....     0
   Startup error        DIISStart       ....  0.200000
   # of expansion vecs  DIISMaxEq       ....     5
   Bias factor          DIISBfac        ....   1.050
   Max. coefficient     DIISMaxC        ....  10.000
 MO-DIIS                CNVKDIIS        .... off
 Trust-Rad. Augm. Hess. CNVTRAH         .... auto
   Auto Start mean grad. ratio tolernc. ....  1.125000
   Auto Start start iteration           ....    50
   Auto Start num. interpolation iter.  ....    10
   Max. Number of Micro iterations      ....    24
   Max. Number of Macro iterations      .... Maxiter - #DIIS iter
   Number of Davidson start vectors     ....     2
   Converg. threshold    (grad. norm)   ....   1.000e-05
   Grad. Scal. Fac. for Micro threshold ....   0.100
   Minimum threshold for Micro iter.    ....   1.000e-02
   NR start threshold (gradient norm)   ....   1.000e-04
   Initial trust radius                 ....   0.400
   Minimum AH scaling param. (alpha)    ....   1.000
   Maximum AH scaling param. (alpha)    .... 1000.000
   Quad. conv. algorithm                .... NR
   White noise on init. David. guess    .... on
   Maximum white noise                  ....   0.010
   Pseudo random numbers                .... off
   Inactive MOs                         .... canonical
   Orbital update algorithm             .... Taylor
   Preconditioner                       .... Diag
   Full preconditioner red. dimension   ....   250
 SOSCF                 CNVSOSCF           .... on
   Start iteration     SOSCFMaxIt         ....   150
   Startup grad/error  SOSCFStart         ....  0.001000
   Hessian update      SOSCFHessUp        .... L-BFGS
   Autom. constraints  SOSCFAutoConstrain .... off
 Level Shifting         CNVShift        .... on
   Level shift para.    LevelShift      ....    0.2500
   Turn off err/grad.   ShiftErr        ....    0.0000
 Zerner damping         CNVZerner       .... off
 Static damping         CNVDamp         .... on
   Fraction old density DampFac         ....    0.8500
   Max. Damping (<1)    DampMax         ....    0.9800
   Min. Damping (>=0)   DampMin         ....    0.0000
   Turn off err/grad.   DampErr         ....    0.0300

SCF Procedure:
 Maximum # iterations   MaxIter         ....   125
 SCF integral mode      SCFMode         .... Direct
   Integral package                     .... SHARK and LIBINT hybrid scheme
 Reset frequency        DirectResetFreq ....    20
 Integral Threshold     Thresh          ....  2.500e-11 Eh
 Primitive CutOff       TCut            ....  2.500e-12 Eh

Convergence Tolerance:
 Convergence Check Mode ConvCheckMode   .... Total+1el-Energy
 Convergence forced     ConvForced      .... 0
 Energy Change          TolE            ....  1.000e-08 Eh
 1-El. energy change                    ....  1.000e-05 Eh
 Orbital Gradient       TolG            ....  1.000e-05
 Orbital Rotation angle TolX            ....  1.000e-05
 DIIS Error             TolErr          ....  5.000e-07

------------------------------
INITIAL GUESS: MODEL POTENTIAL
------------------------------
Loading Hartree-Fock densities                     ... done
Calculating cut-offs                               ... done
Initializing the effective Hamiltonian             ... done
Setting up the integral package (SHARK)            ... done
Starting the Coulomb interaction                   ... done (   0.0 sec)
Making the grid                                    ... done (   0.2 sec)
Mapping shells                                     ... done
Starting the XC term evaluation                    ... done (   0.0 sec)
  promolecular density results
     # of electrons  =     60.000455552
     EX              =    -45.304585237
     EC              =     -1.955936273
     EX+EC           =    -47.260521510
Transforming the Hamiltonian                       ... done (   0.0 sec)
Diagonalizing the Hamiltonian                      ... done (   0.0 sec)
Back transforming the eigenvectors                 ... done (   0.0 sec)
Now organizing SCF variables                       ... done
                      ------------------
                      INITIAL GUESS DONE (   0.3 sec)
                      ------------------
             **** ENERGY FILE WAS UPDATED (cuboctahedron_nn2.00_perturb2.en.tmp) ****
Finished Guess after   1.0 sec
Maximum memory used throughout the entire GUESS-calculation: 9.7 MB


           ************************************************************
           *        Program running with 8 parallel MPI-processes     *
           *              working on a common directory               *
           ************************************************************

-------------------------------------------------------------------------------------------
                                      ORCA LEAN-SCF
                              memory conserving SCF solver
-------------------------------------------------------------------------------------------

----------------------------------------D-I-I-S--------------------------------------------
Iteration    Energy (Eh)           Delta-E    RMSDP     MaxDP     DIISErr   Damp  Time(sec)
-------------------------------------------------------------------------------------------
               ***  Starting incremental Fock matrix formation  ***
    1    -296.7949200829309575     0.00e+00  1.74e-02  2.07e-01  1.04e-01  0.850   0.6
Warning: op=0 Small HOMO/LUMO gap (  -0.098) - skipping pre-diagonalization
         Will do a full diagonalization
    2    -296.9265036459736393    -1.32e-01  1.92e-02  2.12e-01  6.74e-02  0.850   0.8
                               ***Turning on AO-DIIS***
    3    -296.9864240789615906    -5.99e-02  1.34e-02  1.53e-01  3.92e-02  0.850   0.8
    4    -297.0059017337898695    -1.95e-02  8.54e-03  8.88e-02  2.62e-02  0.850   0.5
    5    -297.0214782961702440    -1.56e-02  3.49e-02  3.20e-01  1.83e-02  0.000   0.4
    6    -297.0900224944573438    -6.85e-02  1.14e-02  1.11e-01  3.60e-02  0.000   0.5
    7    -297.1135920546297484    -2.36e-02  9.41e-04  9.81e-03  1.65e-02  0.850   0.3
    8    -297.1148126149815880    -1.22e-03  8.88e-03  8.56e-02  1.58e-02  0.000   0.4
    9    -297.1209308046344404    -6.12e-03  2.50e-03  1.90e-02  1.17e-02  0.000   0.3
   10    -297.1236491946002616    -2.72e-03  2.91e-03  2.42e-02  5.11e-03  0.000   0.3
   11    -297.1240688480546623    -4.20e-04  1.49e-03  1.27e-02  6.81e-03  0.000   0.4
   12    -297.1247872610961167    -7.18e-04  1.00e-03  7.54e-03  2.48e-03  0.000   0.6
   13    -297.1251157401981118    -3.28e-04  7.08e-04  4.43e-03  1.44e-03  0.000   0.7
   14    -297.1253125949469904    -1.97e-04  6.17e-04  3.90e-03  1.21e-03  0.000   0.4
   15    -297.1254395836978119    -1.27e-04  4.82e-04  2.06e-03  1.27e-03  0.000   0.4
   16    -297.1255598936792239    -1.20e-04  4.64e-04  1.80e-03  1.12e-03  0.000   0.4
   17    -297.1256571667173603    -9.73e-05  4.24e-04  1.66e-03  1.07e-03  0.000   0.4
   18    -297.1257508343492191    -9.37e-05  4.04e-04  1.60e-03  1.06e-03  0.000   0.3
   19    -297.1258396391367569    -8.88e-05  4.20e-04  1.64e-03  1.05e-03  0.000   0.4
   20    -297.1259316616615251    -9.20e-05  4.16e-04  1.62e-03  1.06e-03  0.000   0.5
               *** Restarting incremental Fock matrix formation ***
                             ****Resetting DIIS****
Warning: op=0 Small HOMO/LUMO gap (  -0.013) - skipping pre-diagonalization
         Will do a full diagonalization
   21    -297.1260227496911739    -9.11e-05  1.98e-03  7.33e-03  1.02e-03  0.000   0.4
   22    -297.1264417199821537    -4.19e-04  1.12e-03  4.07e-03  2.41e-03  0.000   0.4
   23    -297.1267140642339655    -2.72e-04  1.31e-03  4.48e-03  2.18e-03  0.000   0.3
   24    -297.1269029094362395    -1.89e-04  1.45e-03  4.88e-03  3.89e-03  0.000   0.7
   25    -297.1270373776675342    -1.34e-04  1.61e-03  5.30e-03  6.38e-03  0.000   0.5
   26    -297.1270545455498677    -1.72e-05  1.70e-03  5.49e-03  9.18e-03  0.000   0.5
   27    -297.1271046635835091    -5.01e-05  1.68e-03  5.43e-03  1.07e-02  0.000   0.3
   28    -297.1271970774760121    -9.24e-05  1.86e-03  5.75e-03  1.23e-02  0.000   0.4
   29    -297.1266277906125879     5.69e-04  2.00e-03  7.02e-03  1.52e-02  0.000   0.3
   30    -297.1261734075666254     4.54e-04  2.15e-03  1.09e-02  1.70e-02  0.000   0.5
   31    -297.1267503743922589    -5.77e-04  2.24e-03  9.62e-03  1.39e-02  0.000   0.4
   32    -297.1275861845206236    -8.36e-04  2.40e-03  1.97e-02  1.16e-02  0.000   0.3
   33    -297.1292196019850280    -1.63e-03  2.39e-03  1.67e-02  6.24e-03  0.000   0.5
   34    -297.1284602813253741     7.59e-04  1.33e-03  9.11e-03  9.15e-03  0.000   0.4
   35    -297.1294872237318714    -1.03e-03  8.04e-04  3.88e-03  3.74e-03  0.000   0.3
   36    -297.1296093267376364    -1.22e-04  5.70e-04  3.32e-03  2.87e-03  0.000   0.5
                              *** Initializing SOSCF ***
---------------------------------------S-O-S-C-F--------------------------------------
Iteration    Energy (Eh)           Delta-E    RMSDP     MaxDP     MaxGrad    Time(sec)
--------------------------------------------------------------------------------------
   37    -297.1297258781168011    -1.17e-04  3.68e-04  1.52e-03  4.95e-04     0.7
               *** Restarting incremental Fock matrix formation ***
   38    -297.1297455927564215    -1.97e-05  5.52e-04  4.19e-03  4.93e-04     0.5
   39    -297.1297221726169937     2.34e-05  4.22e-04  2.21e-03  1.26e-03     0.4
   40    -297.1297743246445862    -5.22e-05  6.98e-04  4.69e-03  7.34e-04     0.4
   41    -297.1297589644766504     1.54e-05  4.78e-04  3.26e-03  8.62e-04     0.5
   42    -297.1298205681838454    -6.16e-05  6.97e-04  2.62e-03  2.43e-04     0.3
   43    -297.1298265328437083    -5.96e-06  1.12e-03  4.55e-03  6.77e-04     0.4
   44    -297.1298508882969145    -2.44e-05  5.48e-04  3.28e-03  4.22e-04     0.4
   45    -297.1298555888505462    -4.70e-06  2.46e-04  2.12e-03  4.73e-04     0.4
   46    -297.1298699570016879    -1.44e-05  2.86e-04  2.34e-03  1.39e-04     0.3
   47    -297.1298627390928004     7.22e-06  1.79e-04  1.27e-03  5.64e-04     0.3
   48    -297.1298722913860502    -9.55e-06  1.22e-04  1.06e-03  8.77e-05     0.4
   49    -297.1298716164205871     6.75e-07  7.97e-05  5.17e-04  1.42e-04     0.5
   50    -297.1298734284592911    -1.81e-06  8.11e-05  4.42e-04  4.76e-05     0.4
   51    -297.1298737042931180    -2.76e-07  1.14e-04  6.59e-04  2.52e-05     0.3
   52    -297.1298739559966862    -2.52e-07  1.75e-05  8.71e-05  2.15e-05     0.4
   53    -297.1298739956544068    -3.97e-08  9.58e-06  4.34e-05  6.11e-06     0.3
   54    -297.1298740013413635    -5.69e-09  5.68e-06  2.58e-05  7.47e-06     0.3
                 **** Energy Check signals convergence ****

               *****************************************************
               *                     SUCCESS                       *
               *           SCF CONVERGED AFTER  54 CYCLES          *
               *****************************************************

             **** ENERGY FILE WAS UPDATED (cuboctahedron_nn2.00_perturb2.en.tmp) ****

----------------
TOTAL SCF ENERGY
----------------

Total Energy       :       -297.12987400749194 Eh           -8085.31492 eV

Components:
Nuclear Repulsion  :        329.34102064734225 Eh            8961.82478 eV
Electronic Energy  :       -626.47089465483418 Eh          -17047.13970 eV
One Electron Energy:      -1046.57374065344902 Eh          -28478.71931 eV
Two Electron Energy:        420.10284599861478 Eh           11431.57961 eV

Virial components:
Potential Energy   :       -588.55940899444704 Eh          -16015.51573 eV
Kinetic Energy     :        291.42953498695505 Eh            7930.20081 eV
Virial Ratio       :          2.01955992216366

DFT components:
N(Alpha)           :       30.000002270706 electrons
N(Beta)            :       30.000002270706 electrons
N(Total)           :       60.000004541412 electrons
E(X)               :      -45.538428969719 Eh       
E(C)               :       -1.984806168126 Eh       
E(XC)              :      -47.523235137845 Eh       

---------------
SCF CONVERGENCE
---------------

  Last Energy change         ...    5.6870e-09  Tolerance :   1.0000e-08
  Last MAX-Density change    ...    2.5833e-05  Tolerance :   1.0000e-07
  Last RMS-Density change    ...    5.6766e-06  Tolerance :   5.0000e-09
  Last DIIS Error            ...    4.9546e-04  Tolerance :   5.0000e-07
  Last Orbital Gradient      ...    7.4710e-06  Tolerance :   1.0000e-05
  Last Orbital Rotation      ...    5.9422e-05  Tolerance :   1.0000e-05


----------------
ORBITAL ENERGIES
----------------

  NO   OCC          E(Eh)            E(eV) 
   0   2.0000      -6.656927      -181.1442 
   1   2.0000      -6.642074      -180.7400 
   2   2.0000      -6.634089      -180.5228 
   3   2.0000      -6.631161      -180.4431 
   4   2.0000      -6.630637      -180.4288 
   5   2.0000      -6.630419      -180.4229 
   6   2.0000      -6.626031      -180.3035 
   7   2.0000      -6.622865      -180.2173 
   8   2.0000      -6.616249      -180.0373 
   9   2.0000      -6.612184      -179.9267 
  10   2.0000      -6.608061      -179.8145 
  11   2.0000      -6.600752      -179.6156 
  12   2.0000      -0.642890       -17.4939 
  13   2.0000      -0.555430       -15.1140 
  14   2.0000      -0.543280       -14.7834 
  15   2.0000      -0.505340       -13.7510 
  16   2.0000      -0.457273       -12.4430 
  17   2.0000      -0.410372       -11.1668 
  18   2.0000      -0.392523       -10.6811 
  19   2.0000      -0.376810       -10.2535 
  20   2.0000      -0.361495        -9.8368 
  21   2.0000      -0.332761        -9.0549 
  22   2.0000      -0.299708        -8.1555 
  23   2.0000      -0.280931        -7.6445 
  24   2.0000      -0.259464        -7.0604 
  25   2.0000      -0.244051        -6.6410 
  26   2.0000      -0.231753        -6.3063 
  27   2.0000      -0.226141        -6.1536 
  28   2.0000      -0.219056        -5.9608 
  29   2.0000      -0.211972        -5.7680 
  30   0.0000      -0.215179        -5.8553 
  31   0.0000      -0.194494        -5.2925 
  32   0.0000      -0.181917        -4.9502 
  33   0.0000      -0.154233        -4.1969 
  34   0.0000      -0.145143        -3.9495 
  35   0.0000      -0.137060        -3.7296 
  36   0.0000      -0.126114        -3.4317 
  37   0.0000      -0.107742        -2.9318 
  38   0.0000      -0.103309        -2.8112 
  39   0.0000      -0.097250        -2.6463 
  40   0.0000      -0.044441        -1.2093 
*Only the first 10 virtual orbitals were printed.

                    ********************************
                    * MULLIKEN POPULATION ANALYSIS *
                    ********************************

-----------------------
MULLIKEN ATOMIC CHARGES
-----------------------
   0 B :    0.125122
   1 B :   -0.056602
   2 B :   -0.156152
   3 B :    0.096989
   4 B :    0.176891
   5 B :    0.254088
   6 B :   -0.170746
   7 B :    0.044950
   8 B :   -0.172641
   9 B :   -0.284039
  10 B :    0.093922
  11 B :    0.048218
Sum of atomic charges:    0.0000000

--------------------------------
MULLIKEN REDUCED ORBITAL CHARGES
--------------------------------
  0 B s       :     3.560459  s :     3.560459
      pz      :     0.380207  p :     1.288507
      px      :     0.536139
      py      :     0.372161
      dz2     :     0.006155  d :     0.025912
      dxz     :     0.006481
      dyz     :     0.001771
      dx2y2   :     0.005613
      dxy     :     0.005892

  1 B s       :     3.449866  s :     3.449866
      pz      :     0.495467  p :     1.573016
      px      :     0.468461
      py      :     0.609088
      dz2     :     0.007388  d :     0.033719
      dxz     :     0.003775
      dyz     :     0.009401
      dx2y2   :     0.006809
      dxy     :     0.006346

  2 B s       :     3.317732  s :     3.317732
      pz      :     0.628017  p :     1.802327
      px      :     0.609609
      py      :     0.564701
      dz2     :     0.009696  d :     0.036093
      dxz     :     0.008094
      dyz     :     0.006496
      dx2y2   :     0.006817
      dxy     :     0.004989

  3 B s       :     3.107171  s :     3.107171
      pz      :     0.496497  p :     1.750401
      px      :     0.666495
      py      :     0.587409
      dz2     :     0.007704  d :     0.045439
      dxz     :     0.009984
      dyz     :     0.005177
      dx2y2   :     0.012038
      dxy     :     0.010538

  4 B s       :     3.159833  s :     3.159833
      pz      :     0.525293  p :     1.620095
      px      :     0.467539
      py      :     0.627263
      dz2     :     0.008925  d :     0.043182
      dxz     :     0.006817
      dyz     :     0.009710
      dx2y2   :     0.009534
      dxy     :     0.008196

  5 B s       :     3.088996  s :     3.088996
      pz      :     0.620644  p :     1.615217
      px      :     0.548346
      py      :     0.446228
      dz2     :     0.009815  d :     0.041699
      dxz     :     0.009082
      dyz     :     0.008156
      dx2y2   :     0.008549
      dxy     :     0.006097

  6 B s       :     3.341470  s :     3.341470
      pz      :     0.560104  p :     1.791750
      px      :     0.620740
      py      :     0.610906
      dz2     :     0.008382  d :     0.037526
      dxz     :     0.007657
      dyz     :     0.004587
      dx2y2   :     0.008227
      dxy     :     0.008673

  7 B s       :     3.273495  s :     3.273495
      pz      :     0.514393  p :     1.647710
      px      :     0.566461
      py      :     0.566855
      dz2     :     0.006815  d :     0.033845
      dxz     :     0.004353
      dyz     :     0.008777
      dx2y2   :     0.007344
      dxy     :     0.006556

  8 B s       :     3.322790  s :     3.322790
      pz      :     0.612589  p :     1.809273
      px      :     0.613514
      py      :     0.583169
      dz2     :     0.010307  d :     0.040579
      dxz     :     0.009089
      dyz     :     0.007604
      dx2y2   :     0.008145
      dxy     :     0.005435

  9 B s       :     3.202533  s :     3.202533
      pz      :     0.697554  p :     2.034247
      px      :     0.681968
      py      :     0.654725
      dz2     :     0.008208  d :     0.047259
      dxz     :     0.009260
      dyz     :     0.006133
      dx2y2   :     0.012767
      dxy     :     0.010891

 10 B s       :     3.490285  s :     3.490285
      pz      :     0.334483  p :     1.382457
      px      :     0.471452
      py      :     0.576522
      dz2     :     0.007466  d :     0.033336
      dxz     :     0.004097
      dyz     :     0.007455
      dx2y2   :     0.007532
      dxy     :     0.006786

 11 B s       :     3.439311  s :     3.439311
      pz      :     0.563358  p :     1.480310
      px      :     0.464911
      py      :     0.452040
      dz2     :     0.007356  d :     0.032161
      dxz     :     0.007035
      dyz     :     0.005590
      dx2y2   :     0.007283
      dxy     :     0.004897



                     *******************************
                     * LOEWDIN POPULATION ANALYSIS *
                     *******************************

----------------------
LOEWDIN ATOMIC CHARGES
----------------------
   0 B :    0.103513
   1 B :    0.030331
   2 B :    0.018468
   3 B :   -0.047210
   4 B :   -0.033335
   5 B :   -0.060106
   6 B :   -0.017652
   7 B :   -0.038725
   8 B :   -0.030138
   9 B :    0.021235
  10 B :    0.056740
  11 B :   -0.003121

-------------------------------
LOEWDIN REDUCED ORBITAL CHARGES
-------------------------------
  0 B s       :     3.190676  s :     3.190676
      pz      :     0.527106  p :     1.653472
      px      :     0.639429
      py      :     0.486937
      dz2     :     0.010589  d :     0.052338
      dxz     :     0.016085
      dyz     :     0.003357
      dx2y2   :     0.009159
      dxy     :     0.013149

  1 B s       :     2.995916  s :     2.995916
      pz      :     0.607307  p :     1.896825
      px      :     0.559095
      py      :     0.730423
      dz2     :     0.012885  d :     0.076929
      dxz     :     0.006605
      dyz     :     0.027719
      dx2y2   :     0.015095
      dxy     :     0.014624

  2 B s       :     2.932483  s :     2.932483
      pz      :     0.736500  p :     1.969096
      px      :     0.626854
      py      :     0.605743
      dz2     :     0.017197  d :     0.079953
      dxz     :     0.023396
      dyz     :     0.018299
      dx2y2   :     0.013632
      dxy     :     0.007429

  3 B s       :     2.839410  s :     2.839410
      pz      :     0.713289  p :     2.096967
      px      :     0.761539
      py      :     0.622139
      dz2     :     0.015620  d :     0.110833
      dxz     :     0.030835
      dyz     :     0.008765
      dx2y2   :     0.025086
      dxy     :     0.030526

  4 B s       :     2.862409  s :     2.862409
      pz      :     0.661300  p :     2.070352
      px      :     0.684178
      py      :     0.724874
      dz2     :     0.018873  d :     0.100574
      dxz     :     0.011387
      dyz     :     0.026002
      dx2y2   :     0.018544
      dxy     :     0.025768

  5 B s       :     2.883772  s :     2.883772
      pz      :     0.745023  p :     2.077299
      px      :     0.723668
      py      :     0.608608
      dz2     :     0.019035  d :     0.099034
      dxz     :     0.027217
      dyz     :     0.023197
      dx2y2   :     0.017648
      dxy     :     0.011938

  6 B s       :     2.911176  s :     2.911176
      pz      :     0.609110  p :     2.018560
      px      :     0.720465
      py      :     0.688985
      dz2     :     0.016304  d :     0.087916
      dxz     :     0.022358
      dyz     :     0.007196
      dx2y2   :     0.017753
      dxy     :     0.024305

  7 B s       :     2.932328  s :     2.932328
      pz      :     0.643648  p :     2.028205
      px      :     0.686729
      py      :     0.697828
      dz2     :     0.014598  d :     0.078192
      dxz     :     0.006619
      dyz     :     0.023141
      dx2y2   :     0.013851
      dxy     :     0.019984

  8 B s       :     2.908459  s :     2.908459
      pz      :     0.744572  p :     2.029622
      px      :     0.651090
      py      :     0.633960
      dz2     :     0.018562  d :     0.092058
      dxz     :     0.025624
      dyz     :     0.021207
      dx2y2   :     0.017385
      dxy     :     0.009280

  9 B s       :     2.812572  s :     2.812572
      pz      :     0.647552  p :     2.062562
      px      :     0.801824
      py      :     0.613186
      dz2     :     0.015366  d :     0.103631
      dxz     :     0.024975
      dyz     :     0.010085
      dx2y2   :     0.024819
      dxy     :     0.028386

 10 B s       :     3.064636  s :     3.064636
      pz      :     0.505903  p :     1.803945
      px      :     0.625024
      py      :     0.673018
      dz2     :     0.014094  d :     0.074680
      dxz     :     0.007511
      dyz     :     0.022688
      dx2y2   :     0.014169
      dxy     :     0.016218

 11 B s       :     3.031677  s :     3.031677
      pz      :     0.677148  p :     1.900897
      px      :     0.642362
      py      :     0.581387
      dz2     :     0.012137  d :     0.070547
      dxz     :     0.018548
      dyz     :     0.016861
      dx2y2   :     0.015078
      dxy     :     0.007923



                      *****************************
                      * MAYER POPULATION ANALYSIS *
                      *****************************

  NA   - Mulliken gross atomic population
  ZA   - Total nuclear charge
  QA   - Mulliken gross atomic charge
  VA   - Mayer's total valence
  BVA  - Mayer's bonded valence
  FA   - Mayer's free valence

  ATOM       NA         ZA         QA         VA         BVA        FA
  0 B      4.8749     5.0000     0.1251     2.6093     2.6093     0.0000
  1 B      5.0566     5.0000    -0.0566     3.0338     3.0338     0.0000
  2 B      5.1562     5.0000    -0.1562     3.3671     3.3671     0.0000
  3 B      4.9030     5.0000     0.0970     3.1385     3.1385     0.0000
  4 B      4.8231     5.0000     0.1769     3.1553     3.1553     0.0000
  5 B      4.7459     5.0000     0.2541     3.0280     3.0280    -0.0000
  6 B      5.1707     5.0000    -0.1707     3.2562     3.2562     0.0000
  7 B      4.9551     5.0000     0.0449     3.1970     3.1970    -0.0000
  8 B      5.1726     5.0000    -0.1726     3.3022     3.3022     0.0000
  9 B      5.2840     5.0000    -0.2840     3.6282     3.6282    -0.0000
 10 B      4.9061     5.0000     0.0939     2.7857     2.7857     0.0000
 11 B      4.9518     5.0000     0.0482     2.8937     2.8937    -0.0000

  Mayer bond orders larger than 0.100000
B(  0-B ,  1-B ) :   0.2489 B(  0-B ,  2-B ) :   0.5899 B(  0-B ,  3-B ) :   0.1838 
B(  0-B ,  6-B ) :   0.2335 B(  0-B ,  7-B ) :   0.5360 B(  0-B ,  8-B ) :   0.3698 
B(  0-B , 10-B ) :   0.1467 B(  1-B ,  2-B ) :   0.5995 B(  1-B ,  4-B ) :   0.1972 
B(  1-B ,  5-B ) :   0.7551 B(  1-B ,  6-B ) :   0.5430 B(  1-B ,  7-B ) :   0.1008 
B(  1-B ,  9-B ) :   0.1901 B(  1-B , 10-B ) :   0.2066 B(  2-B ,  3-B ) :   0.5219 
B(  2-B ,  4-B ) :   0.6883 B(  2-B ,  5-B ) :   0.2240 B(  2-B ,  8-B ) :   0.2024 
B(  2-B ,  9-B ) :   0.1696 B(  2-B , 11-B ) :   0.1383 B(  3-B ,  4-B ) :   0.7111 
B(  3-B ,  8-B ) :   0.7341 B(  3-B ,  9-B ) :   0.3177 B(  3-B , 10-B ) :   0.3497 
B(  4-B ,  5-B ) :   0.3511 B(  4-B ,  7-B ) :   0.2177 B(  4-B ,  8-B ) :   0.1275 
B(  4-B ,  9-B ) :   0.6249 B(  5-B ,  6-B ) :   0.4930 B(  5-B ,  7-B ) :   0.1048 
B(  5-B ,  9-B ) :   0.7779 B(  6-B ,  7-B ) :   0.6714 B(  6-B ,  8-B ) :   0.1286 
B(  6-B ,  9-B ) :   0.2965 B(  6-B , 10-B ) :   0.1555 B(  6-B , 11-B ) :   0.5110 
B(  7-B ,  8-B ) :   0.5770 B(  7-B ,  9-B ) :   0.1162 B(  7-B , 10-B ) :   0.1436 
B(  7-B , 11-B ) :   0.6227 B(  8-B ,  9-B ) :   0.1575 B(  8-B , 10-B ) :   0.5995 
B(  8-B , 11-B ) :   0.2563 B(  9-B , 10-B ) :   0.4610 B(  9-B , 11-B ) :   0.4501 
B( 10-B , 11-B ) :   0.5614 

-------
TIMINGS
-------

Total SCF time: 0 days 0 hours 0 min 24 sec 

Total time                  ....      24.556 sec
Sum of individual times     ....      23.873 sec  ( 97.2%)

SCF preparation             ....       0.629 sec  (  2.6%)
Fock matrix formation       ....      19.345 sec  ( 78.8%)
  Startup                   ....       0.038 sec  (  0.2% of F)
  Split-RI-J                ....       5.997 sec  ( 31.0% of F)
  XC integration            ....      12.474 sec  ( 64.5% of F)
    XC Preparation          ....       0.000 sec  (  0.0% of XC)
    Basis function eval.    ....       2.660 sec  ( 21.3% of XC)
    Density eval.           ....       1.960 sec  ( 15.7% of XC)
    XC-Functional eval.     ....       0.321 sec  (  2.6% of XC)
    XC-Potential eval.      ....       2.498 sec  ( 20.0% of XC)
Diagonalization             ....       0.000 sec  (  0.0%)
Density matrix formation    ....       0.487 sec  (  2.0%)
Total Energy calculation    ....       0.368 sec  (  1.5%)
Population analysis         ....       0.038 sec  (  0.2%)
Orbital Transformation      ....       0.045 sec  (  0.2%)
Orbital Orthonormalization  ....       0.000 sec  (  0.0%)
DIIS solution               ....       2.330 sec  (  9.5%)
SOSCF solution              ....       0.632 sec  (  2.6%)
Finished LeanSCF after  24.6 sec

Maximum memory used throughout the entire LEANSCF-calculation: 10.2 MB


-------------------------------------------------------------------------------
                          DFT DISPERSION CORRECTION                            
                                                                               
                              DFTD3 V3.1  Rev 1                                
                          USING Becke-Johnson damping                          
-------------------------------------------------------------------------------
The BP86 functional is recognized
Active option DFTDOPT                   ...         4   

molecular C6(AA) [au] = 6087.588057 


            DFT-D V3
 parameters
 s6 scaling factor         :     1.0000 
 a1 scaling factor         :     0.3946 
 s8 scaling factor         :     3.2822 
 a2 scaling factor         :     4.8516 
 ad hoc parameters k1-k3   :    16.0000     1.3333    -4.0000 

 Edisp/kcal,au: -31.207455987670  -0.049732241422 
 E6   /kcal   :  -8.870753915 
 E8   /kcal   : -22.336702072 
 % E8         :  71.574889286 

-------------------------   ----------------
Dispersion correction           -0.049732241
-------------------------   ----------------


-------------------------   --------------------
FINAL SINGLE POINT ENERGY      -297.179606248914
-------------------------   --------------------



           ************************************************************
           *        Program running with 8 parallel MPI-processes     *
           *              working on a common directory               *
           ************************************************************
------------------------------------------------------------------------------
                         ORCA SCF GRADIENT CALCULATION
------------------------------------------------------------------------------

Nuc. rep. gradient        (SHARK) ... done (  0.0 sec)
HCore & Overlap gradient  (SHARK) ... done (  0.1 sec)
Split-RIJ-J gradient      (SHARK) ... done (  0.4 sec)
XC gradient                       ... done (  1.0 sec)
Dispersion correction             ... done (  0.1 sec)

-------------------
DISPERSION GRADIENT
-------------------

   1   B   :    0.001345263    0.002304319    0.005310734
   2   B   :    0.001724742   -0.002469550    0.002544748
   3   B   :    0.004329264    0.004887220   -0.001268524
   4   B   :   -0.001213881    0.000481625   -0.002238418
   5   B   :    0.000159869   -0.001061562   -0.002159008
   6   B   :    0.000831695   -0.000238545   -0.000092832
   7   B   :    0.000990054   -0.002100084    0.002187504
   8   B   :   -0.003951486   -0.001667595    0.006052348
   9   B   :   -0.001700699    0.005181652   -0.004600361
  10   B   :    0.002726920   -0.001457111   -0.001388866
  11   B   :   -0.002304216   -0.000444727   -0.003099850
  12   B   :   -0.002937525   -0.003415644   -0.001247475

Difference to translation invariance:
           :    0.0000000000    0.0000000000   -0.0000000000

Difference to rotation invariance:
           :    0.0000000000   -0.0000000000    0.0000000000

Norm of the Dispersion gradient    ...    0.0165214895
RMS gradient                       ...    0.0027535816
MAX gradient                       ...    0.0060523479

------------------
CARTESIAN GRADIENT
------------------

   1   B   :   -0.008218750   -0.035465699   -0.044185486
   2   B   :   -0.032075174    0.000589913   -0.044831595
   3   B   :   -0.029291251   -0.037932417    0.017884339
   4   B   :    0.022475878   -0.026838396    0.014749019
   5   B   :   -0.031312315    0.015817553    0.036075780
   6   B   :   -0.023917874    0.022243280   -0.007844820
   7   B   :   -0.020836717    0.039101513   -0.025564465
   8   B   :    0.045727551   -0.007258340   -0.041673642
   9   B   :    0.009679276   -0.015377106    0.015376799
  10   B   :   -0.000724331    0.022820542    0.021516700
  11   B   :    0.030067647   -0.031897462    0.057466358
  12   B   :    0.038426060    0.054196621    0.001031012

Difference to translation invariance:
           :   -0.0000000000    0.0000000000   -0.0000000000

Difference to rotation invariance:
           :    0.0000251085    0.0003258407   -0.0001022461

Norm of the Cartesian gradient     ...    0.1781112425
RMS gradient                       ...    0.0296852071
MAX gradient                       ...    0.0574663583

-------
TIMINGS
-------

Total SCF gradient time     ....        1.548 sec

Densities                   ....       0.001 sec  (  0.1%)
One electron gradient       ....       0.059 sec  (  3.8%)
RI-J Coulomb gradient       ....       0.405 sec  ( 26.2%)
XC gradient                 ....       1.016 sec  ( 65.7%)

Maximum memory used throughout the entire SCFGRAD-calculation: 29.7 MB
------------------------------------------------------------------------------
                         ORCA GEOMETRY RELAXATION STEP
------------------------------------------------------------------------------

Reading the OPT-File                    .... done
Getting information on internals        .... done
Copying old internal coords+grads       .... done
Making the new internal coordinates     .... (2022 redundants) done
Validating the new internal coordinates .... (2022 redundants) done
Calculating the B-matrix                .... done
Calculating the G,G- and P matrices     .... done
Transforming gradient to internals      .... done
Projecting the internal gradient        .... done
Number of atoms                         ....  12
Number of internal coordinates          .... 111
Current Energy                          ....  -297.179606249 Eh
Current gradient norm                   ....     0.178111242 Eh/bohr
Maximum allowed component of the step   ....  0.300
Current trust radius                    ....  0.300
Evaluating the initial hessian          ....  (Almloef) done
Projecting the Hessian                  .... done
Forming the augmented Hessian           .... done
Diagonalizing the augmented Hessian     .... done
Last element of RFO vector              ....  0.764705961
Lowest eigenvalues of augmented Hessian:
 -0.187995710  0.020371674  0.021434678  0.027039258  0.032514187
Length of the computed step             ....  0.842649880
Warning: the length of the step is outside the trust region - taking restricted step instead
The input lambda is                     ....     0.018364
   iter:   5  x=    0.008896  g=13854.700201 f(x)=    61.877627
   iter:  10  x=   -0.178382  g=   19.890740 f(x)=     1.550340
   iter:  15  x=   -0.665633  g=    0.261715 f(x)=     0.005190
The output lambda is                    ....    -0.666485 (19 iterations)
The final length of the internal step   ....  0.300000000
Converting the step to Cartesian space:
 Initial RMS(Int)=    0.0284747399
Transforming coordinates:
 Iter   0:  RMS(Cart)=    0.1092880485 RMS(Int)=    0.0283376226
 Iter   5:  RMS(Cart)=    0.0000001754 RMS(Int)=    0.0000001082
done
Storing new coordinates                 .... done

                                .--------------------.
          ----------------------|Geometry convergence|-------------------------
          Item                value                   Tolerance       Converged
          ---------------------------------------------------------------------
          RMS gradient        0.0213989830            0.0001000000      NO
          MAX gradient        0.0788390832            0.0003000000      NO
          RMS step            0.0284747399            0.0020000000      NO
          MAX step            0.1078409199            0.0040000000      NO
          -------------------------------------------------------------------------
          ........................................................
          Max(Bonds)      0.0571      Max(Angles)    3.51
          Max(Dihed)        4.17      Max(Improp)    0.00
          ---------------------------------------------------------------------

The optimization has not yet converged - more geometry cycles are needed


    ---------------------------------------------------------------------------
                         Redundant Internal Coordinates
                            (Angstroem and degrees)

        Definition                    Value    dE/dq     Step     New-Value
    ----------------------------------------------------------------------------
     1. B(B   2,B   1)                2.0519  0.068392 -0.0476    2.0043   
     2. B(B   3,B   2)                1.9136  0.036565 -0.0235    1.8901   
     3. B(B   4,B   3)                1.7996  0.044594 -0.0283    1.7713   
     4. B(B   4,B   2)                1.8615  0.020450 -0.0134    1.8482   
     5. B(B   5,B   1)                1.7183  0.007006 -0.0044    1.7139   
     6. B(B   6,B   5)                1.8911  0.036097 -0.0240    1.8671   
     7. B(B   6,B   1)                2.0642  0.038823 -0.0277    2.0366   
     8. B(B   7,B   6)                1.8828  0.038420 -0.0260    1.8568   
     9. B(B   7,B   0)                2.0960  0.034237 -0.0248    2.0712   
    10. B(B   8,B   3)                1.7127  0.005264 -0.0035    1.7093   
    11. B(B   9,B   5)                1.7759  0.023453 -0.0150    1.7610   
    12. B(B   9,B   4)                1.7865  0.011069 -0.0076    1.7789   
    13. B(B  10,B   8)                1.8481  0.000031 -0.0004    1.8477   
    14. B(B  10,B   3)                2.0821  0.024985 -0.0165    2.0656   
    15. B(B  11,B   6)                2.0146  0.037843 -0.0266    1.9879   
    16. B(B  11,B  10)                2.0944  0.078839 -0.0571    2.0373   
    17. B(B  11,B   7)                1.9755  0.056381 -0.0389    1.9366   
    18. A(B   5,B   1,B   6)           59.15  0.003077   -0.18     58.97   
    19. A(B   2,B   1,B   5)           95.40 -0.007897    0.59     95.99   
    20. A(B   2,B   1,B   6)          104.66  0.003017   -0.36    104.30   
    21. A(B   3,B   2,B   4)           56.92  0.005447   -0.36     56.56   
    22. A(B   1,B   2,B   4)           90.01  0.003680   -0.27     89.74   
    23. A(B   1,B   2,B   3)          122.21  0.005750   -0.41    121.80   
    24. A(B   2,B   3,B  10)          129.90  0.000320   -0.02    129.88   
    25. A(B   2,B   3,B   8)           97.93  0.008789   -0.61     97.32   
    26. A(B   8,B   3,B  10)           57.30 -0.005632    0.39     57.69   
    27. A(B   4,B   3,B  10)          101.37  0.009742   -0.70    100.67   
    28. A(B   2,B   3,B   4)           60.08 -0.006519    0.44     60.52   
    29. A(B   4,B   3,B   8)          130.77  0.009951   -0.74    130.03   
    30. A(B   2,B   4,B   3)           63.00  0.001072   -0.08     62.92   
    31. A(B   3,B   4,B   9)           85.51  0.011438   -0.92     84.59   
    32. A(B   2,B   4,B   9)          108.91  0.002549   -0.20    108.72   
    33. A(B   6,B   5,B   9)           85.63  0.014296   -1.09     84.55   
    34. A(B   1,B   5,B   9)          118.82  0.010024   -0.73    118.09   
    35. A(B   1,B   5,B   6)           69.58  0.004536   -0.40     69.17   
    36. A(B   7,B   6,B  11)           60.80  0.005646   -0.42     60.38   
    37. A(B   5,B   6,B  11)           98.29  0.004671   -0.33     97.95   
    38. A(B   1,B   6,B  11)          132.55 -0.009172    0.77    133.32   
    39. A(B   5,B   6,B   7)          132.47  0.027478   -2.13    130.33   
    40. A(B   1,B   6,B   7)          109.86  0.011761   -0.91    108.95   
    41. A(B   1,B   6,B   5)           51.27 -0.007613    0.59     51.86   
    42. A(B   6,B   7,B  11)           62.90 -0.003922    0.27     63.16   
    43. A(B   0,B   7,B  11)          126.09  0.047628   -3.51    122.58   
    44. A(B   0,B   7,B   6)           88.45  0.031919   -2.16     86.29   
    45. A(B   3,B   8,B  10)           71.45  0.008122   -0.57     70.88   
    46. A(B   4,B   9,B   5)           78.54  0.013144   -1.01     77.53   
    47. A(B   3,B  10,B   8)           51.25 -0.002490    0.18     51.43   
    48. A(B   8,B  10,B  11)           88.95  0.008528   -0.75     88.20   
    49. A(B   3,B  10,B  11)          109.94 -0.006396    0.39    110.33   
    50. A(B   6,B  11,B   7)           56.30 -0.001724    0.15     56.45   
    51. A(B   7,B  11,B  10)           92.07  0.038091   -2.96     89.11   
    52. A(B   6,B  11,B  10)          115.72  0.012198   -0.84    114.88   
    53. D(B   4,B   2,B   1,B   6)     72.38 -0.000094    0.12     72.49   
    54. D(B   3,B   2,B   1,B   5)    -36.95 -0.008223    0.62    -36.33   
    55. D(B   3,B   2,B   1,B   6)     22.54 -0.007130    0.59     23.13   
    56. D(B   4,B   2,B   1,B   5)     12.88 -0.001186    0.14     13.03   
    57. D(B  10,B   3,B   2,B   1)    -13.57 -0.002813    0.25    -13.32   
    58. D(B   8,B   3,B   2,B   1)    -67.09 -0.003147    0.27    -66.82   
    59. D(B   8,B   3,B   2,B   4)   -132.89 -0.008461    0.64   -132.25   
    60. D(B  10,B   3,B   2,B   4)    -79.36 -0.008127    0.61    -78.75   
    61. D(B   4,B   3,B   2,B   1)     65.79  0.005314   -0.37     65.43   
    62. D(B   9,B   4,B   2,B   3)     74.48  0.012983   -1.05     73.44   
    63. D(B   2,B   4,B   3,B  10)    129.73 -0.003873    0.29    130.02   
    64. D(B   2,B   4,B   3,B   8)     73.38 -0.001683    0.15     73.53   
    65. D(B   9,B   4,B   2,B   1)    -55.01  0.011487   -0.94    -55.94   
    66. D(B   9,B   4,B   3,B   2)   -113.89  0.004137   -0.34   -114.23   
    67. D(B   3,B   4,B   2,B   1)   -129.49 -0.001496    0.11   -129.38   
    68. D(B   9,B   4,B   3,B  10)     15.84  0.000264   -0.05     15.79   
    69. D(B   9,B   4,B   3,B   8)    -40.51  0.002454   -0.20    -40.70   
    70. D(B   9,B   5,B   1,B   6)    -72.69 -0.015696    1.25    -71.44   
    71. D(B   9,B   5,B   1,B   2)     31.17 -0.007659    0.49     31.66   
    72. D(B   6,B   5,B   1,B   2)    103.86  0.008037   -0.76    103.10   
    73. D(B  11,B   6,B   5,B   9)    -16.43  0.015634   -1.21    -17.63   
    74. D(B   7,B   6,B   5,B   9)     41.23  0.017064   -1.26     39.97   
    75. D(B   1,B   6,B   5,B   9)    122.97  0.002642   -0.14    122.83   
    76. D(B  11,B   6,B   1,B   5)     60.96  0.010906   -0.88     60.08   
    77. D(B  11,B   6,B   1,B   2)    -26.58  0.021332   -1.75    -28.34   
    78. D(B   7,B   6,B   5,B   1)    -81.74  0.014422   -1.12    -82.86   
    79. D(B  11,B   6,B   5,B   1)   -139.40  0.012992   -1.07   -140.46   
    80. D(B   7,B   6,B   1,B   5)    129.09  0.028308   -2.20    126.89   
    81. D(B   7,B   6,B   1,B   2)     41.55  0.038735   -3.07     38.47   
    82. D(B   5,B   6,B   1,B   2)    -87.54  0.010427   -0.88    -88.41   
    83. D(B   0,B   7,B   6,B   1)      4.07  0.053137   -4.17     -0.11   
    84. D(B  11,B   7,B   6,B   5)    -73.28  0.009752   -0.83    -74.10   
    85. D(B  11,B   7,B   6,B   1)   -128.45  0.015428   -1.26   -129.71   
    86. D(B   0,B   7,B   6,B  11)    132.51  0.037709   -2.91    129.61   
    87. D(B   0,B   7,B   6,B   5)     59.24  0.047461   -3.73     55.50   
    88. D(B  10,B   8,B   3,B   4)     75.87  0.000788   -0.06     75.81   
    89. D(B  10,B   8,B   3,B   2)    132.86 -0.003875    0.27    133.13   
    90. D(B   4,B   9,B   5,B   6)   -122.82 -0.005124    0.52   -122.30   
[...]
      dxz     :     0.011866
      dyz     :     0.012838
      dx2y2   :     0.013208
      dxy     :     0.011850

  8 B s       :     3.176471  s :     3.176471
      pz      :     0.755451  p :     2.045125
      px      :     0.614779
      py      :     0.674895
      dz2     :     0.013197  d :     0.061033
      dxz     :     0.010652
      dyz     :     0.009479
      dx2y2   :     0.013555
      dxy     :     0.014150

  9 B s       :     2.561816  s :     2.561816
      pz      :     0.689662  p :     2.074476
      px      :     0.753253
      py      :     0.631561
      dz2     :     0.012800  d :     0.062225
      dxz     :     0.013757
      dyz     :     0.010836
      dx2y2   :     0.010883
      dxy     :     0.013948

 10 B s       :     3.150013  s :     3.150013
      pz      :     0.541569  p :     1.815108
      px      :     0.551702
      py      :     0.721838
      dz2     :     0.011976  d :     0.053045
      dxz     :     0.006331
      dyz     :     0.011619
      dx2y2   :     0.010814
      dxy     :     0.012305

 11 B s       :     3.150999  s :     3.150999
      pz      :     0.531725  p :     1.814940
      px      :     0.618588
      py      :     0.664626
      dz2     :     0.011663  d :     0.053032
      dxz     :     0.008746
      dyz     :     0.009279
      dx2y2   :     0.012567
      dxy     :     0.010778



                     *******************************
                     * LOEWDIN POPULATION ANALYSIS *
                     *******************************

----------------------
LOEWDIN ATOMIC CHARGES
----------------------
   0 B :   -0.074616
   1 B :    0.037748
   2 B :    0.036486
   3 B :    0.038675
   4 B :    0.036171
   5 B :   -0.074490
   6 B :   -0.074347
   7 B :    0.038133
   8 B :   -0.074463
   9 B :    0.038502
  10 B :    0.035973
  11 B :    0.036229

-------------------------------
LOEWDIN REDUCED ORBITAL CHARGES
-------------------------------
  0 B s       :     2.670118  s :     2.670118
      pz      :     0.811629  p :     2.261104
      px      :     0.831043
      py      :     0.618432
      dz2     :     0.033104  d :     0.143394
      dxz     :     0.015509
      dyz     :     0.032407
      dx2y2   :     0.027538
      dxy     :     0.034836

  1 B s       :     2.654169  s :     2.654169
      pz      :     0.693506  p :     2.149989
      px      :     0.593376
      py      :     0.863106
      dz2     :     0.035833  d :     0.158095
      dxz     :     0.021983
      dyz     :     0.034467
      dx2y2   :     0.034686
      dxy     :     0.031126

  2 B s       :     2.742388  s :     2.742388
      pz      :     0.589462  p :     2.091782
      px      :     0.674970
      py      :     0.827350
      dz2     :     0.028718  d :     0.129343
      dxz     :     0.018637
      dyz     :     0.021663
      dx2y2   :     0.033412
      dxy     :     0.026914

  3 B s       :     2.654887  s :     2.654887
      pz      :     0.697806  p :     2.148809
      px      :     0.834469
      py      :     0.616534
      dz2     :     0.035496  d :     0.157629
      dxz     :     0.034234
      dyz     :     0.021995
      dx2y2   :     0.027362
      dxy     :     0.038543

  4 B s       :     2.741818  s :     2.741818
      pz      :     0.579858  p :     2.092531
      px      :     0.649398
      py      :     0.863274
      dz2     :     0.028407  d :     0.129480
      dxz     :     0.011883
      dyz     :     0.028628
      dx2y2   :     0.026019
      dxy     :     0.034543

  5 B s       :     2.670054  s :     2.670054
      pz      :     0.807785  p :     2.260894
      px      :     0.707378
      py      :     0.745731
      dz2     :     0.031880  d :     0.143542
      dxz     :     0.025421
      dyz     :     0.022621
      dx2y2   :     0.035027
      dxy     :     0.028592

  6 B s       :     2.669974  s :     2.669974
      pz      :     0.806623  p :     2.260863
      px      :     0.837608
      py      :     0.616632
      dz2     :     0.032015  d :     0.143510
      dxz     :     0.015484
      dyz     :     0.032557
      dx2y2   :     0.027685
      dxy     :     0.035770

  7 B s       :     2.654354  s :     2.654354
      pz      :     0.700747  p :     2.149522
      px      :     0.582220
      py      :     0.866555
      dz2     :     0.035508  d :     0.157991
      dxz     :     0.022264
      dyz     :     0.034389
      dx2y2   :     0.034573
      dxy     :     0.031256

  8 B s       :     2.670024  s :     2.670024
      pz      :     0.810446  p :     2.260899
      px      :     0.707780
      py      :     0.742673
      dz2     :     0.033250  d :     0.143540
      dxz     :     0.025079
      dyz     :     0.022825
      dx2y2   :     0.034415
      dxy     :     0.027972

  9 B s       :     2.654623  s :     2.654623
      pz      :     0.694922  p :     2.149015
      px      :     0.832013
      py      :     0.622080
      dz2     :     0.035747  d :     0.157861
      dxz     :     0.034533
      dyz     :     0.022044
      dx2y2   :     0.027142
      dxy     :     0.038395

 10 B s       :     2.741990  s :     2.741990
      pz      :     0.589784  p :     2.092610
      px      :     0.641802
      py      :     0.861025
      dz2     :     0.028662  d :     0.129427
      dxz     :     0.012014
      dyz     :     0.028336
      dx2y2   :     0.026164
      dxy     :     0.034250

 11 B s       :     2.742278  s :     2.742278
      pz      :     0.578924  p :     2.092113
      px      :     0.684808
      py      :     0.828382
      dz2     :     0.028201  d :     0.129381
      dxz     :     0.019010
      dyz     :     0.021556
      dx2y2   :     0.033607
      dxy     :     0.027007



                      *****************************
                      * MAYER POPULATION ANALYSIS *
                      *****************************

  NA   - Mulliken gross atomic population
  ZA   - Total nuclear charge
  QA   - Mulliken gross atomic charge
  VA   - Mayer's total valence
  BVA  - Mayer's bonded valence
  FA   - Mayer's free valence

  ATOM       NA         ZA         QA         VA         BVA        FA
  0 B      5.2821     5.0000    -0.2821     4.0736     4.0736     0.0000
  1 B      4.6969     5.0000     0.3031     3.3567     3.3567    -0.0000
  2 B      5.0188     5.0000    -0.0188     3.6958     3.6958     0.0000
  3 B      4.7017     5.0000     0.2983     3.3625     3.3625    -0.0000
  4 B      5.0156     5.0000    -0.0156     3.6979     3.6979     0.0000
  5 B      5.2854     5.0000    -0.2854     4.0687     4.0687     0.0000
  6 B      5.2835     5.0000    -0.2835     4.0743     4.0743     0.0000
  7 B      4.6977     5.0000     0.3023     3.3587     3.3587    -0.0000
  8 B      5.2826     5.0000    -0.2826     4.0730     4.0730     0.0000
  9 B      4.6985     5.0000     0.3015     3.3590     3.3590    -0.0000
 10 B      5.0182     5.0000    -0.0182     3.6983     3.6983    -0.0000
 11 B      5.0190     5.0000    -0.0190     3.6961     3.6961     0.0000

  Mayer bond orders larger than 0.100000
B(  0-B ,  2-B ) :   1.3692 B(  0-B ,  3-B ) :   0.6429 B(  0-B ,  7-B ) :   0.6413 
B(  0-B ,  8-B ) :   0.9068 B(  0-B , 10-B ) :   0.2068 B(  1-B ,  2-B ) :   0.9905 
B(  1-B ,  3-B ) :   0.1364 B(  1-B ,  4-B ) :   0.3198 B(  1-B ,  5-B ) :   0.6407 
B(  1-B ,  6-B ) :   0.6406 B(  1-B ,  7-B ) :   0.1366 B(  1-B ,  9-B ) :   0.1407 
B(  1-B , 11-B ) :   0.3183 B(  2-B ,  3-B ) :   0.3184 B(  2-B ,  4-B ) :   0.1468 
B(  2-B ,  7-B ) :   0.3186 B(  2-B ,  8-B ) :   0.2060 B(  2-B , 10-B ) :   0.1119 
B(  2-B , 11-B ) :   0.1484 B(  3-B ,  4-B ) :   0.9920 B(  3-B ,  7-B ) :   0.1403 
B(  3-B ,  8-B ) :   0.6436 B(  3-B ,  9-B ) :   0.1356 B(  3-B , 10-B ) :   0.3202 
B(  4-B ,  5-B ) :   1.3662 B(  4-B ,  6-B ) :   0.2065 B(  4-B ,  9-B ) :   0.3190 
B(  4-B , 10-B ) :   0.1474 B(  4-B , 11-B ) :   0.1120 B(  5-B ,  6-B ) :   0.9106 
B(  5-B ,  9-B ) :   0.6406 B(  5-B , 11-B ) :   0.2060 B(  6-B ,  9-B ) :   0.6418 
B(  6-B , 11-B ) :   1.3690 B(  7-B ,  8-B ) :   0.6425 B(  7-B ,  9-B ) :   0.1372 
B(  7-B , 10-B ) :   0.3190 B(  7-B , 11-B ) :   0.9910 B(  8-B , 10-B ) :   1.3677 
B(  9-B , 10-B ) :   0.9923 B(  9-B , 11-B ) :   0.3187 B( 10-B , 11-B ) :   0.1467 


-------
TIMINGS
-------

Total SCF time: 0 days 0 hours 0 min 6 sec 

Total time                  ....       6.219 sec
Sum of individual times     ....       5.611 sec  ( 90.2%)

SCF preparation             ....       0.559 sec  (  9.0%)
Fock matrix formation       ....       3.743 sec  ( 60.2%)
  Startup                   ....       0.010 sec  (  0.3% of F)
  Split-RI-J                ....       1.168 sec  ( 31.2% of F)
  XC integration            ....       2.801 sec  ( 74.8% of F)
    XC Preparation          ....       0.000 sec  (  0.0% of XC)
    Basis function eval.    ....       0.426 sec  ( 15.2% of XC)
    Density eval.           ....       0.338 sec  ( 12.1% of XC)
    XC-Functional eval.     ....       0.049 sec  (  1.8% of XC)
    XC-Potential eval.      ....       0.395 sec  ( 14.1% of XC)
Diagonalization             ....       0.000 sec  (  0.0%)
Density matrix formation    ....       0.056 sec  (  0.9%)
Total Energy calculation    ....       0.200 sec  (  3.2%)
Population analysis         ....       0.302 sec  (  4.9%)
Orbital Transformation      ....       0.017 sec  (  0.3%)
Orbital Orthonormalization  ....       0.000 sec  (  0.0%)
DIIS solution               ....       0.118 sec  (  1.9%)
SOSCF solution              ....       0.616 sec  (  9.9%)
Finished LeanSCF after   6.5 sec

Maximum memory used throughout the entire LEANSCF-calculation: 15.1 MB


-------------------------------------------------------------------------------
                          DFT DISPERSION CORRECTION                            
                                                                               
                              DFTD3 V3.1  Rev 1                                
                          USING Becke-Johnson damping                          
-------------------------------------------------------------------------------
The BP86 functional is recognized
Active option DFTDOPT                   ...         4   

molecular C6(AA) [au] = 4201.654661 


            DFT-D V3
 parameters
 s6 scaling factor         :     1.0000 
 a1 scaling factor         :     0.3946 
 s8 scaling factor         :     3.2822 
 a2 scaling factor         :     4.8516 
 ad hoc parameters k1-k3   :    16.0000     1.3333    -4.0000 

 Edisp/kcal,au: -23.562676464694  -0.037549511083 
 E6   /kcal   :  -6.714974260 
 E8   /kcal   : -16.847702204 
 % E8         :  71.501648931 

-------------------------   ----------------
Dispersion correction           -0.037549511
-------------------------   ----------------


-------------------------   --------------------
FINAL SINGLE POINT ENERGY      -297.686195223239
-------------------------   --------------------

                                *** OPTIMIZATION RUN DONE ***



           ************************************************************
           *        Program running with 8 parallel MPI-processes     *
           *              working on a common directory               *
           ************************************************************

------------------------------------------------------------------------------
                              ORCA PROPERTY CALCULATIONS
------------------------------------------------------------------------------

GBWName                                 ... cuboctahedron_nn2.00_perturb2.gbw
Number of atoms                         ...     12
Number of basis functions               ...    168
Max core memory                         ...   2500 MB

Electric properties:
Dipole moment                           ... YES
Quadrupole moment                       ...  NO
Static polarizability (Dipole/Dipole)   ...  NO
Static polarizability (Dipole/Quad.)    ...  NO
Static polarizability (Quad./Quad.)     ...  NO
Static polarizability (Velocity)        ...  NO
Static hyperpolarizability              ...  NO

Atomic electric properties:
Dipole moment                           ...  NO
Quadrupole moment                       ...  NO
Static polarizability                   ...  NO

Choice of electric origin               ... Center of mass
Position of electric origin             ...    -0.102284     0.038098     0.087772

General magnetic properties:
Magnetizability                         ...  NO

EPR properties:
g-Tensor (aka g-matrix)                 ...  NO
Zero-Field splitting spin-orbit         ...  NO
Zero-field splitting spin-spin          ...  NO
Hyperfine couplings                     ...  NO (   0 nuclei)
Quadrupole couplings                    ...  NO (   0 nuclei)
Contact density                         ...  NO (   0 nuclei)

NMR properties:
Chemical shifts                         ...  NO (   0 nuclei)
Spin-rotation constants                 ...  NO (   0 nuclei)
Spin-spin couplings                     ...  NO (   0 nuclei,    0 pairs)

Choice of magnetic origin               ... GIAO
Position of magnetic origin             ...     0.000000     0.000000     0.000000

Properties with geometric perturbations:
SCF Hessian                             ...  NO
IR spectrum                             ...  NO
VCD spectrum                            ...  NO
X-ray spectroscopy properties:
SCF XES/XAS/RIXS spectra                ...  NO

SCF SOC stabilization energy            ...  NO
Diagonal Born-Oppenheimer correction    ...  NO

-------------
DIPOLE MOMENT
-------------

Method             : SCF
Type of density    : Electron Density
Multiplicity       :   1
Irrep              :   0
Energy             :  -297.6486457121557692 Eh
Basis              : AO
                                X                 Y                 Z
Electronic contribution:     -0.000662044      -0.000512425       0.000447876
Nuclear contribution   :      0.000000000      -0.000000000      -0.000000000
                        -----------------------------------------
Total Dipole Moment    :     -0.000662044      -0.000512425       0.000447876
                        -----------------------------------------
Magnitude (a.u.)       :      0.000949461
Magnitude (Debye)      :      0.002413337



--------------------
Rotational spectrum 
--------------------
 
Rotational constants in cm-1:             0.089704             0.053062             0.053036 
Rotational constants in MHz :          2689.264759          1590.747390          1589.977319 

Dipole components along the rotational axes: 
x,y,z [a.u.] :     0.000134     0.000537    -0.000771 
x,y,z [Debye]:     0.000341     0.001365    -0.001961 

 

Dipole moment calculation done in   0.1 sec 

Maximum memory used throughout the entire PROP-calculation: 11.4 MB

--------------------------------
SUGGESTED CITATIONS FOR THIS RUN
--------------------------------

Below you find a list of papers that are relevant to this ORCA run
We neither can nor want to force you to cite these papers, but we appreciate if you do
You receive ORCA, which is the product of decades of hard work by many enthusiastic individuals, for free
The only thing we kindly ask in return is that you cite our papers,
We deeply appreciate it, if you show your appreciation for ORCA by not just citing the generic ORCA reference.

Please note that relegating all ORCA citations to the supporting information does *not* help us.
SI sections are not indexed - citations you put there will not count into any citation statistics
But we need these citations in order to attract the funding resources that allow us to do what we are doing

Therefore, if you are a happy ORCA user, please consider citing a few of the papers listed below in the main body of your paper

In addition to the list printed below, the program has created the file cuboctahedron_nn2.00_perturb2.bibtex that contains the list in bibtex format
You can import this file easily into all common literature databanks and citation aid programs

It goes without saying that in many instances, there are alternative algorithms to achieve similar
results as the ones you have gotten from ORCA. It is, of course, also the case that in some instances
ORCA just re-implements algorithms worked out by others. We are fully aware of that and we are also
fully appreciative of our colleagues work. Hence this citation list should not be read as indicating
that the listed papers, which are focused on our own work, are the only ones worth citing. It simply
meant to make it easier for users to cite ORCA specific papers. It is not a substitute for doing your
own literature research and citing the relevant literature in a scientifically appropriate manner.

List of essential papers. We consider these as the minimum necessary citations

  1. Neese, F.
     Software update: the ORCA program system, version 6.0
     WIRES Comput. Molec. Sci. 2025 15(1), e70019
     doi.org/10.1002/wcms.70019

List of papers to cite with high priority. The work reported in these papers was absolutely
necessary for this run to complete.
Our perspective: the developers of density functionals and basis sets usually get cited in chemistry papers
Good! But without the algorithms to do something with them, the functionals or basis sets would not do anything.
Hence, in our opinion, the algorithm design and method developments papers are equally worthy of getting cited

  1. Neese, F.
     An improvement of the resolution of the identity approximation for the formation of the Coulomb matrix
     J. Comp. Chem. 2003 24(14), 1740-1747
     doi.org/10.1002/jcc.10318
  2. Grimme, S.; Antony, J.; Ehrlich, S.; Krieg, H.
     A consistent and accurate ab initio parametrization of density functional dispersion correction (DFT-D) for the 94 elements H-Pu
     J. Chem. Phys. 2010 132 , 154104
     doi.org/10.1063/1.3382344
  3. Grimme, S.; Ehrlich, S.; Goerigk, L.
     Effect of the damping function in dispersion corrected density functional theory
     J. Comput. Chem. 2011 32(7), 1456-1465
     doi.org/10.1002/jcc.21759
  4. Neese, F.
     The SHARK Integral Generation and Digestion System
     J. Comp. Chem. 2022 44(3), 381
     doi.org/10.1002/jcc.26942

List of suggested additional citations. These are papers that are important in the 'surrounding' of 
of this run, or papers that preceded the highly important papers. If you like your results we are grateful for a citation.

  1. Neese, F.
     The ORCA program system
     WIRES Comput. Molec. Sci. 2012 2(1), 73-78
     doi.org/10.1002/wcms.81
  2. Neese, F.
     Software update: the ORCA program system, version 4.0
     WIRES Comput. Molec. Sci. 2018 8(1), 1-6
     doi.org/10.1002/wcms.1327
  3. Neese, F.; Wennmohs, F.; Becker, U.; Riplinger, C.
     The ORCA quantum chemistry program package
     J. Chem. Phys. 2020 152(22), 224108
     doi.org/10.1063/5.0004608
  4. Neese, F.
     Software update: The ORCA program system—Version 5.0
     WIRES Comput. Molec. Sci. 2022 12(1), e1606
     doi.org/10.1002/wcms.1606

List of optional additional citations

  1. Neese, F.
     Approximate second-order SCF convergence for spin unrestricted wavefunctions
     Chem. Phys. Lett. 2000 325(1-3), 93-98
     doi.org/10.1016/s0009-2614(00)00662-x

Timings for individual modules:

Sum of individual times          ...     1229.576 sec (=  20.493 min)
Startup calculation              ...      156.915 sec (=   2.615 min)  12.8 %
SCF iterations                   ...      856.828 sec (=  14.280 min)  69.7 %
Property calculations            ...        0.778 sec (=   0.013 min)   0.1 %
SCF Gradient evaluation          ...      214.415 sec (=   3.574 min)  17.4 %
Geometry relaxation              ...        0.640 sec (=   0.011 min)   0.1 %
                             ****ORCA TERMINATED NORMALLY****
TOTAL RUN TIME: 0 days 0 hours 21 minutes 41 seconds 271 msec
