
                                 *****************
                                 * O   R   C   A *
                                 *****************

                                            #,                                       
                                            ###                                      
                                            ####                                     
                                            #####                                    
                                            ######                                   
                                           ########,                                 
                                     ,,################,,,,,                         
                               ,,#################################,,                 
                          ,,##########################################,,             
                       ,#########################################, ''#####,          
                    ,#############################################,,   '####,        
                  ,##################################################,,,,####,       
                ,###########''''           ''''###############################       
              ,#####''   ,,,,##########,,,,          '''####'''          '####       
            ,##' ,,,,###########################,,,                        '##       
           ' ,,###''''                  '''############,,,                           
         ,,##''                                '''############,,,,        ,,,,,,###''
      ,#''                                            '''#######################'''  
     '                                                          ''''####''''         
             ,#######,   #######,   ,#######,      ##                                
            ,#'     '#,  ##    ##  ,#'     '#,    #''#        ,####,    ,#,          
            ##       ##  ##   ,#'  ##            #'  '#       #'       ,# #          
            ##       ##  #######   ##           ,######,      #####,      #          
            '#,     ,#'  ##    ##  '#,     ,#' ,#      #,     #,   #      #          
             '#######'   ##     ##  '#######'  #'      '#     '####' #    #          



                #########################################################
                #                        -***-                          #
                #          Department of theory and spectroscopy        #
                #                                                       #
                #                      Frank Neese                      #
                #                                                       #
                #     Directorship, Architecture, Infrastructure        #
                #                    SHARK, DRIVERS                     #
                #        Core code/Algorithms in most modules           #
                #                                                       #
                #        Max Planck Institute fuer Kohlenforschung      #
                #                Kaiser Wilhelm Platz 1                 #
                #                 D-45470 Muelheim/Ruhr                 #
                #                      Germany                          #
                #                                                       #
                #                  All rights reserved                  #
                #                        -***-                          #
                #########################################################


                         Program Version 6.1.1  -  RELEASE   -
                                (GIT: $487d211c$)
                          ($2025-11-21 10:33:24 +0100$)
                                                                         
                                  - NO-DMRG VERSION -                    
                                                                         


 With contributions from (in alphabetic order):
[Max-Planck-Institut fuer Kohlenforschung]                               
  Daniel Aravena         : Magnetic Suceptibility                        
  Michael Atanasov       : Ab Initio Ligand Field Theory (pilot matlab implementation)
  Alexander A. Auer      : GIAO ZORA, VPT2 properties, NMR spectrum      
  Ute Becker             : All parallelization in ORCA, NUMFREQ, NUMCALC 
  Giovanni Bistoni       : ED, misc. LED, open-shell LED, HFLD           
  Dmytro Bykov           : pre 5.0 version of the SCF Hessian            
  Marcos Casanova-Páez   : Triplet and SCS-CIS(D). UHF-(DLPNO)-IP/EA/STEOM-CCSD. UHF-CVS-IP/STEOM-CCSD   
  Vijay G. Chilkuri      : MRCI spin determinant printing, contributions to CSF-ICE 
  Pauline Colinet        : FMM embedding                                 
  Dipayan Datta          : RHF DLPNO-CCSD density                        
  Achintya Kumar Dutta   : EOM-CC, STEOM-CC                              
  Nicolas Foglia         : Exact transition moments, OPA infrastructure, MCD improvements    
  Dmitry Ganyushin       : Spin-Orbit,Spin-Spin,Magnetic field MRCI      
  Miquel Garcia-Rates    : C-PCM and meta-GGA Hessian, CCSD/C-PCM, Gaussian charge scheme 
  Tiago L. C. Gouveia    : GS-ROHF, GS-ROCIS                             
  Yang Guo               : DLPNO-NEVPT2, F12-NEVPT2, CIM, IAO-localization        
  Andreas Hansen         : Spin unrestricted coupled pair/coupled cluster methods 
  Ingolf Harden          : AUTO-CI MPn and infrastructure                
  Benjamin Helmich-Paris : MC-RPA, TRAH-(SCF,CASSCF), AVAS, COSX integrals, SCF dyn. polar., MC-PDFT, srDFT 
  Lee Huntington         : MR-EOM, pCC                                   
  Robert Izsak           : Overlap fitted RIJCOSX, COSX-SCS-MP3, EOM     
  Riya Kayal             : Wick's Theorem for AUTO-CI, AUTO-CI UHF-CCSDT 
  Emily Kempfer          : AUTO-CI RHF CISDT and CCSDT, approximate NEVPT4
  Christian Kollmar      : KDIIS, OOCD, Brueckner-CCSD(T), CCSD density, CASPT2, CASPT2-K, improved NEVPT2 
  Axel Koslowski         : Symmetry handling                             
  Simone Kossmann        : meta-GGA functionals, TD-DFT gradient, OOMP2, (MP2 Hessian; deprecated post 5.0) 
  Lucas Lang             : DCDCAS, Hyperfine gauge corrections, ICE-SOC+SSC
  Marvin Lechner         : AUTO-CI (C++ implementation), FIC-MRCC        
  Spencer Leger          : CASSCF response                               
  Dagmar Lenk            : GEPOL surface, SMD, ORCA-2-JSON               
  Dimitrios Liakos       : Extrapolation schemes; Compound Job, Property file
  Dimitrios Manganas     : Further ROCIS development; embedding schemes. LFT, Crystal Embedding 
  Dimitrios Pantazis     : SARC Basis sets                               
  Anastasios Papadopoulos: AUTO-CI, single reference methods and gradients 
  Taras Petrenko         : pre 6.0 DFT Hessian and TD-DFT gradient,  ECA, NRVS 
  Petra Pikulova         : Analytic Raman intensities                    
  Peter Pinski           : DLPNO-MP2, DLPNO-MP2 Gradient                 
  Shashank Vittal Rao    : ES-AILFT, MagRelax                            
  Christoph Reimann      : Effective Core Potentials                     
  Marius Retegan         : Local ZFS, SOC                                
  Christoph Riplinger    : Optimizer, TS searches, QM/MM, DLPNO-CCSD(T), (RO)-DLPNO pert. Triples 
  Michael Roemelt        : Original ROCIS implementation, recursive CI coupling coefficients
  Masaaki Saitow         : Open-shell DLPNO-CCSD energy and density      
  Barbara Sandhoefer     : DKH picture change effects                    
  Yorick L. A. Schmerwitz: GMF and freeze-and-release deltaSCF, NEB S-IDPP initial path                    
  Kantharuban Sivalingam : CASSCF convergence/infrastructure, NEVPT2, NEVPT3, NEVPT4(SD), FIC-MRCI and CEPA variants
  Bernardo de Souza      : ESD, SOC TD-DFT                               
  Georgi L. Stoychev     : AutoAux, RI-MP2 NMR, DLPNO-MP2 response, X2C  
  Van Anh Tran           : RI-MP2 g-tensors                              
  Willem Van den Heuvel  : Paramagnetic NMR                              
  Zikuan Wang            : NOTCH, Electric field optimization            
  Frank Wennmohs         : Technical directorship and infrastructure     
  Hang Xu                : AUTO-CI-Response properties                   
                                                                         
[FACCTs GmbH]                                                            
  Markus Bursch, Nicolas Foglia, Miquel Garcia-Rates, Ingolf Harden, Hagen Neugebauer, Anastasios Papadopoulos, 
  Christoph Riplinger, Bernardo de Souza, Georgi L. Stoychev                                                    
                                                                 
  APM, various basis sets, CI-OPT, improved COSX, DLPNO-Multilevel,           
  DOCKER, DRACO, updates on ESD, Fragmentator, GOAT, IRC, LR-CPCM, L-BFGS, MBIS, meta-GGA TD-DFT gradient, ML-optimized integration grids, 
  MM, NACMEs, nearIR, NEB, NEB-TS, NL-DFT gradient (VV10), 2- and 3-layer-ONIOM, interface openCOSMO-RS, QMMM,   
  Crystal-QMMM, RESP, rigid body optimization, SF, symmetry and pop. for TD-DFT, various functionals, SOLVATOR                                   
                                                                         
[Other institutions]                                                     
  V. Asgeirsson          : NEB                                           
  Christoph Bannwarth    : sTDA-DFT, sTD-DFT, PBEh-3c, B97-3c, D3        
  Giovanni Bistoni       : ETS/NOCV, ADLD/ADEX, COVALED                  
  Martin Brehm           : Molecular dynamics                            
  Ronald Cardenas        : ETS/NOCV                                      
  Martina Colucci        : COVALED                                       
  Sebastian Ehlert       : rSCAN, r2SCAN, r2SCAN-3c, D4, dhf basis sets  
  Marvin Friede          : D4 for Fr, Ra, Ac-Lr                          
  Lars Goerigk           : TD-DFT with DH, B97 family of functionals     
  Stefan Grimme          : VdW corrections, initial TS optimization, DFT functionals, gCP, sTDA/sTD-DF 
  Waldemar Hujo          : DFT-NL                                        
  H. Jonsson             : NEB                                           
  Holger Kruse           : gCP                                           
  Marcel Mueller         : wB97X-3c, vDZP basis set                      
  Hagen Neugebauer       : wr2SCAN, Native XTB                           
  Gianluca Regni         : ADLD/ADEX                                     
  Tobias Risthaus        : pre 6.0 range-separated hybrid DFT and stability analysis
  Lukas Wittmann         : regularized MP2, r2SCAN double-hybrids, wr2SCAN        
                                                                         
We gratefully acknowledge several colleagues who have allowed us to      
interface, adapt or use parts of their codes:                            
  Ed Valeev, F. Pavosevic, A. Kumar             : LibInt (2-el integral package), F12 methods 
  Garnet Chan, S. Sharma, J. Yang, R. Olivares  : DMRG                   
  Ulf Ekstrom                                   : XCFun DFT Library      
  Mihaly Kallay                                 : mrcc  (arbitrary order and MRCC methods)
  Frank Weinhold                                : gennbo (NPA and NBO analysis)           
  Simon Mueller                                 : openCOSMO-RS                            
  Christopher J. Cramer and Donald G. Truhlar   : smd solvation model                     
  S Lehtola, MJT Oliveira, MAL Marques          : LibXC Library                           
  Liviu Ungur et al                             : ANISO software                          


 Your calculation uses the libint2 library for the computation of 2-el integrals
 For citations please refer to: http://libint.valeyev.net

 Your ORCA version has been built with support for libXC version: 7.0.0
 For citations please refer to: https://libxc.gitlab.io

 This ORCA versions uses:
   CBLAS   interface :  Fast vector & matrix operations
   LAPACKE interface :  Fast linear algebra routines
   SCALAPACK package :  Parallel linear algebra routines
   Shared memory     :  Shared parallel matrices
   BLAS/LAPACK       :  OpenBLAS 0.3.29  USE64BITINT DYNAMIC_ARCH NO_AFFINITY Zen SINGLE_THREADED
        Core in use  :  Zen
   Copyright (c) 2011-2014, The OpenBLAS Project


  ***********************************
  * Starting time: Thu Apr 23 18:56:52 2026
  * Host name:     vmi3233575
  * Process ID:    1414051
  * Working dir.:  /root/b12_scan/jobs/quasi_planar_nn1.70_perturb0
  ***********************************

NOTE: MaxCore=2500 MB was set to SCF,MP2,MDCI,CIPSI,MRCI,RASCI and CIS
      => If you want to overwrite this, your respective input block should be placed after the MaxCore statement
Your calculation utilizes the atom-pairwise dispersion correction
with the Becke-Johnson damping scheme (D3BJ)


================================================================================

----- Orbital basis set information -----
Your calculation utilizes the basis: def2-SVP
   F. Weigend and R. Ahlrichs, Phys. Chem. Chem. Phys. 7, 3297 (2005).

----- AuxJ basis set information -----
Your calculation utilizes the auxiliary basis: def2/J
   H-Rn: F. Weigend, Phys. Chem. Chem. Phys. 8, 1057 (2006).
   Fr-Lr: K. Eichkorn, F. Weigend, O. Treutler, R. Ahlrichs; Theor. Chem. Acc. 97, 119 (1997).

================================================================================
                                        WARNINGS
                       Please study these warnings very carefully!
================================================================================


WARNING: Geometry Optimization
  ===> : Switching off AutoStart
         For restart on a previous wavefunction, please use MOREAD

================================================================================
                                       INPUT FILE
================================================================================
NAME = quasi_planar_nn1.70_perturb0.inp
|  1> ! BP86 def2-SVP def2/J RI Opt TightSCF D3BJ
|  2> ! SlowConv
|  3> 
|  4> %pal nprocs 8 end
|  5> %maxcore 2500
|  6> 
|  7> %geom
|  8>   MaxIter 300
|  9> end
| 10> 
| 11> * xyz 0 1
| 12> B      1.00035499     -0.01981573      0.36374398
| 13> B     -0.47501271      0.76964959      0.32191984
| 14> B     -0.29514772     -0.70793786      0.16212029
| 15> B      2.91752518      0.21828261     -0.08302796
| 16> B      1.83120038      2.20337244     -0.27611350
| 17> B      0.12270631      3.03263105     -0.13667188
| 18> B     -1.76192863      2.69152411     -0.10850706
| 19> B     -2.82160636      0.67002160     -0.03650035
| 20> B     -2.67778952     -1.34164200     -0.20075175
| 21> B     -1.42192399     -2.91557976     -0.05619759
| 22> B      0.69517816     -3.03736834     -0.11311061
| 23> B      2.66189047     -1.72632718     -0.03592095
| 24> *
| 25> 
| 26>                          ****END OF INPUT****
================================================================================

                       *****************************
                       * Geometry Optimization Run *
                       *****************************

Geometry optimization settings:
Update method            Update   .... BFGS
Choice of coordinates    CoordSys .... (2022) Redundant Internals
Initial Hessian          InHess   .... Almloef's Model
Max. no of cycles        MaxIter  .... 300

Convergence Tolerances:
Energy Change            TolE     ....  5.0000e-06 Eh
Max. Gradient            TolMAXG  ....  3.0000e-04 Eh/bohr
RMS Gradient             TolRMSG  ....  1.0000e-04 Eh/bohr
Max. Displacement        TolMAXD  ....  4.0000e-03 bohr
RMS Displacement         TolRMSD  ....  2.0000e-03 bohr
Strict Convergence                .... False

------------------------------------------------------------------------------
                        ORCA OPTIMIZATION COORDINATE SETUP
------------------------------------------------------------------------------

The optimization will be done in redundant internal coordinates (2022)
Making redundant internal coordinates   ...  (2022 redundants) done
Evaluating the initial hessian          ...  (Almloef) done
Evaluating the coordinates              ...  done
Calculating the B-matrix                .... done
Calculating the G-matrix                .... done
The number of degrees of freedom        ....  218

    -----------------------------------------------------------------
                    Redundant Internal Coordinates


    -----------------------------------------------------------------
         Definition                    Initial Value    Approx d2E/dq
    -----------------------------------------------------------------
      1. B(B   1,B   0)                  1.6738         0.295486   
      2. B(B   2,B   0)                  1.4807         0.600699   
      3. B(B   2,B   1)                  1.4970         0.565699   
      4. B(B   3,B   0)                  1.9829         0.094943   
      5. B(B   4,B   3)                  2.2711         0.032931   
      6. B(B   4,B   1)                  2.7806         0.010000   
      7. B(B   4,B   0)                  2.4581         0.016568   
      8. B(B   5,B   1)                  2.3851         0.021666   
      9. B(B   5,B   4)                  1.9042         0.126754   
     10. B(B   6,B   5)                  1.9155         0.121627   
     11. B(B   6,B   1)                  2.3527         0.024407   
     12. B(B   7,B   6)                  2.2835         0.031462   
     13. B(B   7,B   2)                  2.8847         0.010000   
     14. B(B   7,B   1)                  2.3759         0.022410   
     15. B(B   8,B   7)                  2.0235         0.081791   
     16. B(B   8,B   2)                  2.4920         0.014627   
     17. B(B   9,B   2)                  2.4882         0.014836   
     18. B(B   9,B   8)                  2.0188         0.083221   
     19. B(B  10,B   2)                  2.5461         0.011991   
     20. B(B  10,B   9)                  2.1214         0.057086   
     21. B(B  11,B  10)                  2.3649         0.023334   
     22. B(B  11,B   3)                  1.9619         0.102550   
     23. A(B   2,B   0,B   3)          150.5807         0.322787   
     24. A(B   1,B   0,B   3)          142.1813         0.288104   
     25. A(B   3,B   0,B   4)           60.3928         0.192723   
     26. A(B   2,B   0,B   4)          132.8900         0.246476   
     27. A(B   1,B   0,B   2)           56.2619         0.391288   
     28. A(B   1,B   0,B   4)           82.2324         0.223114   
     29. A(B   0,B   1,B   4)           61.1521         0.191569   
     30. A(B   0,B   1,B   7)          148.7102         0.232602   
     31. A(B   0,B   1,B   6)          150.6927         0.235404   
     32. A(B   0,B   1,B   2)           55.3366         0.387209   
     33. A(B   2,B   1,B   5)          152.3546         0.254074   
     34. A(B   2,B   1,B   6)          148.4809         0.258586   
     35. A(B   6,B   1,B   7)           57.7508         0.170664   
     36. A(B   4,B   1,B   5)           42.4031         0.145777   
     37. A(B   4,B   1,B   6)           89.6064         0.147329   
     38. A(B   4,B   1,B   7)          143.9336         0.146213   
     39. A(B   2,B   1,B   7)           93.5072         0.255341   
     40. A(B   5,B   1,B   6)           47.6882         0.170042   
     41. A(B   0,B   1,B   5)          103.3805         0.231509   
     42. A(B   5,B   1,B   7)          104.9689         0.168491   
     43. A(B   2,B   1,B   4)          112.7248         0.207810   
     44. A(B   1,B   2,B   9)          146.1687         0.240516   
     45. A(B   9,B   2,B  10)           49.8276         0.152333   
     46. A(B   7,B   2,B   8)           43.4532         0.136642   
     47. A(B   7,B   2,B   9)           91.2129         0.136795   
     48. A(B   1,B   2,B  10)          164.0018         0.233388   
     49. A(B   0,B   2,B   7)          123.6187         0.199455   
     50. A(B   8,B   2,B   9)           47.8268         0.155246   
     51. A(B   0,B   2,B  10)           95.7155         0.235363   
     52. A(B   0,B   2,B   1)           68.4015         0.439154   
     53. A(B   1,B   2,B   8)           98.7230         0.240029   
     54. A(B   0,B   2,B   8)          167.0380         0.242095   
     55. A(B   0,B   2,B   9)          145.1339         0.242589   
     56. A(B   7,B   2,B  10)          140.3760         0.134547   
     57. A(B   1,B   2,B   7)           55.2947         0.197964   
     58. A(B   8,B   2,B  10)           97.0936         0.152130   
     59. A(B   4,B   3,B  11)          143.7137         0.212303   
     60. A(B   0,B   3,B   4)           70.2230         0.210171   
     61. A(B   0,B   3,B  11)           75.4983         0.245695   
     62. A(B   0,B   4,B   1)           36.6154         0.142433   
     63. A(B   1,B   4,B   3)           85.8570         0.151421   
     64. A(B   1,B   4,B   5)           57.6326         0.173687   
     65. A(B   0,B   4,B   3)           49.3842         0.170619   
     66. A(B   0,B   4,B   5)           94.1027         0.199734   
     67. A(B   3,B   4,B   5)          143.4724         0.218361   
     68. A(B   4,B   5,B   6)          143.7359         0.262873   
     69. A(B   1,B   5,B   6)           65.2687         0.205570   
     70. A(B   1,B   5,B   4)           79.9643         0.206665   
     71. A(B   1,B   6,B   5)           67.0432         0.208756   
     72. A(B   1,B   6,B   7)           61.6351         0.177182   
     73. A(B   5,B   6,B   7)          127.9294         0.215840   
     74. A(B   1,B   7,B   2)           31.1981         0.141472   
     75. A(B   2,B   7,B   6)           91.0666         0.145660   
     76. A(B   2,B   7,B   8)           57.8892         0.159338   
     77. A(B   1,B   7,B   6)           60.6141         0.175495   
     78. A(B   1,B   7,B   8)           89.0681         0.196375   
     79. A(B   6,B   7,B   8)          147.6226         0.204945   
     80. A(B   7,B   8,B   9)          144.4402         0.233500   
     81. A(B   2,B   8,B   9)           65.9862         0.186874   
     82. A(B   2,B   8,B   7)           78.6575         0.186491   
     83. A(B   2,B   9,B  10)           66.5061         0.179160   
     84. A(B   8,B   9,B  10)          131.5817         0.222205   
     85. A(B   2,B   9,B   8)           66.1870         0.187190   
     86. A(B   9,B  10,B  11)          142.8685         0.188891   
     87. A(B   2,B  10,B  11)           79.2072         0.159169   
     88. A(B   2,B  10,B   9)           63.6664         0.174918   
     89. A(B   3,B  11,B  10)          131.0764         0.203053   
     90. D(B   2,B   1,B   0,B   4)    156.5072         0.010000   
     91. D(B   6,B   1,B   0,B   3)     -4.3349         0.010000   
     92. D(B   6,B   1,B   0,B   4)      4.1955         0.010000   
     93. D(B   2,B   1,B   0,B   3)    147.9768         0.010000   
     94. D(B   5,B   1,B   0,B   3)    -12.5090         0.010000   
     95. D(B   6,B   1,B   0,B   2)   -152.3117         0.010000   
     96. D(B   5,B   1,B   0,B   2)   -160.4857         0.010000   
     97. D(B   5,B   1,B   0,B   4)     -3.9785         0.010000   
     98. D(B   8,B   2,B   0,B   1)      6.8560         0.021955   
     99. D(B   9,B   2,B   1,B   5)   -141.6538         0.021391   
    100. D(B   9,B   2,B   1,B   7)     -9.2209         0.021391   
    101. D(B   8,B   2,B   1,B   0)   -178.4477         0.021391   
    102. D(B   9,B   2,B   1,B   4)   -163.8670         0.021391   
    103. D(B   9,B   2,B   0,B   1)   -174.0490         0.021955   
    104. D(B   1,B   2,B   0,B   3)   -138.5527         0.021955   
    105. D(B   9,B   2,B   1,B   0)    173.8890         0.021391   
    106. D(B   1,B   2,B   0,B   4)    -32.6222         0.021955   
    107. D(B   9,B   2,B   0,B   3)     47.3983         0.021955   
    108. D(B   9,B   2,B   0,B   4)    153.3288         0.021955   
    109. D(B   0,B   2,B   1,B   7)    176.8901         0.021391   
    110. D(B   0,B   2,B   1,B   6)    154.2100         0.021391   
    111. D(B   0,B   2,B   1,B   4)     22.2440         0.021391   
    112. D(B   0,B   2,B   1,B   5)     44.4572         0.021391   
    113. D(B   8,B   2,B   0,B   4)    -25.7662         0.021955   
    114. D(B   9,B   2,B   1,B   6)    -31.9009         0.021391   
    115. D(B   8,B   2,B   0,B   3)   -131.6967         0.021955   
    116. D(B   4,B   3,B   0,B   1)      9.7324         0.010000   
    117. D(B  11,B   3,B   0,B   1)   -158.1684         0.010000   
    118. D(B   4,B   3,B   0,B   2)    125.8722         0.010000   
    119. D(B  11,B   3,B   0,B   4)   -167.9008         0.010000   
    120. D(B  11,B   3,B   0,B   2)    -42.0286         0.010000   
    121. D(B   1,B   4,B   3,B  11)     16.4662         0.010000   
    122. D(B   1,B   4,B   3,B   0)     -3.5867         0.010000   
    123. D(B   0,B   4,B   3,B  11)     20.0529         0.010000   
    124. D(B   5,B   4,B   1,B   2)    164.9222         0.010000   
    125. D(B   3,B   4,B   1,B   6)   -173.3810         0.010000   
    126. D(B   5,B   4,B   1,B   7)     31.4734         0.010000   
    127. D(B   3,B   4,B   1,B   2)    -16.2558         0.010000   
    128. D(B   5,B   4,B   1,B   6)      7.7970         0.010000   
    129. D(B   5,B   4,B   3,B   0)     -1.9149         0.010000   
    130. D(B   3,B   4,B   1,B   0)      4.5667         0.010000   
    131. D(B   5,B   4,B   1,B   0)   -174.2553         0.010000   
    132. D(B   3,B   4,B   1,B   5)    178.8220         0.010000   
    133. D(B   1,B   4,B   0,B   2)     26.9014         0.010000   
    134. D(B   3,B   4,B   0,B   2)   -147.0937         0.010000   
    135. D(B   5,B   4,B   3,B  11)     18.1380         0.010000   
    136. D(B   3,B   4,B   0,B   1)   -173.9951         0.010000   
    137. D(B   5,B   4,B   0,B   3)    178.8574         0.010000   
    138. D(B   5,B   4,B   0,B   2)     31.7637         0.010000   
    139. D(B   5,B   4,B   0,B   1)      4.8623         0.010000   
    140. D(B   6,B   5,B   4,B   1)    -16.3615         0.010000   
    141. D(B   1,B   5,B   4,B   3)     -1.9743         0.010000   
    142. D(B   6,B   5,B   4,B   0)    -19.7929         0.010000   
    143. D(B   6,B   5,B   4,B   3)    -18.3357         0.010000   
    144. D(B   6,B   5,B   1,B   2)    138.2907         0.010000   
    145. D(B   6,B   5,B   1,B   0)    174.5997         0.010000   
    146. D(B   4,B   5,B   1,B   7)   -161.4477         0.010000   
    147. D(B   6,B   5,B   1,B   4)    169.4291         0.010000   
    148. D(B   4,B   5,B   1,B   6)   -169.4291         0.010000   
    149. D(B   1,B   5,B   4,B   0)     -3.4315         0.010000   
    150. D(B   4,B   5,B   1,B   2)    -31.1384         0.010000   
    151. D(B   4,B   5,B   1,B   0)      5.1706         0.010000   
    152. D(B   5,B   6,B   1,B   0)    -10.7806         0.010000   
    153. D(B   7,B   6,B   5,B   1)    -10.1916         0.010000   
    154. D(B   1,B   6,B   5,B   4)     17.7821         0.010000   
    155. D(B   7,B   6,B   1,B   5)    170.8739         0.010000   
    156. D(B   7,B   6,B   1,B   2)     27.0690         0.010000   
    157. D(B   7,B   6,B   1,B   0)    160.0933         0.010000   
    158. D(B   5,B   6,B   1,B   7)   -170.8739         0.010000   
    159. D(B   7,B   6,B   5,B   4)      7.5905         0.010000   
    160. D(B   5,B   6,B   1,B   4)     -7.1064         0.010000   
    161. D(B   5,B   6,B   1,B   2)   -143.8049         0.010000   
    162. D(B   2,B   7,B   6,B   1)     -7.0932         0.010000   
    163. D(B   2,B   7,B   6,B   5)      3.5771         0.010000   
    164. D(B   8,B   7,B   6,B   1)    -22.6301         0.010000   
    165. D(B   8,B   7,B   6,B   5)    -11.9598         0.010000   
    166. D(B   6,B   7,B   2,B   8)   -170.2504         0.010000   
    167. D(B   6,B   7,B   2,B   1)     11.9884         0.010000   
    168. D(B   6,B   7,B   2,B   0)      8.5157         0.010000   
    169. D(B   8,B   7,B   2,B  10)      6.6589         0.010000   
    170. D(B   8,B   7,B   2,B   9)     -2.8807         0.010000   
    171. D(B   8,B   7,B   2,B   1)   -177.7612         0.010000   
    172. D(B   8,B   7,B   2,B   0)    178.7661         0.010000   
    173. D(B   6,B   7,B   1,B   5)     -6.9734         0.010000   
    174. D(B   6,B   7,B   1,B   2)   -166.2111         0.010000   
    175. D(B   6,B   7,B   2,B   9)   -173.1311         0.010000   
    176. D(B   6,B   7,B   1,B   0)   -161.2824         0.010000   
    177. D(B   8,B   7,B   1,B   4)    139.7608         0.010000   
    178. D(B   8,B   7,B   1,B   5)    161.1341         0.010000   
    179. D(B   1,B   7,B   6,B   5)     10.6703         0.010000   
    180. D(B   8,B   7,B   1,B   6)    168.1076         0.010000   
    181. D(B   8,B   7,B   1,B   2)      1.8965         0.010000   
    182. D(B   8,B   7,B   1,B   0)      6.8252         0.010000   
    183. D(B   2,B   8,B   7,B   1)     -1.1597         0.010000   
    184. D(B   2,B   8,B   7,B   6)     18.4321         0.010000   
    185. D(B   9,B   8,B   7,B   1)      4.9533         0.010000   
    186. D(B   9,B   8,B   7,B   6)     24.5451         0.010000   
    187. D(B   9,B   8,B   2,B   7)   -176.1126         0.010000   
    188. D(B   9,B   8,B   2,B   1)   -174.2506         0.010000   
    189. D(B   9,B   8,B   2,B   0)    179.3019         0.010000   
    190. D(B   7,B   8,B   2,B  10)   -175.7262         0.010000   
    191. D(B   9,B   8,B   7,B   2)      6.1129         0.010000   
    192. D(B   7,B   8,B   2,B   9)    176.1126         0.010000   
    193. D(B   7,B   8,B   2,B   1)      1.8619         0.010000   
    194. D(B   7,B   8,B   2,B   0)     -4.5855         0.010000   
    195. D(B  10,B   9,B   8,B   2)    -13.0640         0.010000   
    196. D(B  10,B   9,B   8,B   7)    -19.6273         0.010000   
    197. D(B   2,B   9,B   8,B   7)     -6.5634         0.010000   
    198. D(B  10,B   9,B   2,B   8)    169.3760         0.010000   
    199. D(B  10,B   9,B   2,B   1)    179.6206         0.010000   
    200. D(B  10,B   9,B   2,B   0)    -10.3501         0.010000   
    201. D(B   8,B   9,B   2,B  10)   -169.3760         0.010000   
    202. D(B   8,B   9,B   2,B   7)      2.6732         0.010000   
    203. D(B   8,B   9,B   2,B   1)     10.2446         0.010000   
    204. D(B   8,B   9,B   2,B   0)   -179.7261         0.010000   
    205. D(B   2,B  10,B   9,B   8)     13.0316         0.010000   
    206. D(B  11,B  10,B   9,B   2)     -1.0270         0.010000   
    207. D(B  11,B  10,B   9,B   8)     12.0045         0.010000   
    208. D(B  11,B  10,B   2,B   9)    179.3689         0.010000   
    209. D(B  11,B  10,B   2,B   1)      0.1352         0.010000   
    210. D(B  11,B  10,B   2,B   0)     -6.5557         0.010000   
    211. D(B   9,B  10,B   2,B   7)    -12.5238         0.010000   
    212. D(B   9,B  10,B   2,B   8)     -7.9141         0.010000   
    213. D(B   9,B  10,B   2,B   1)   -179.2336         0.010000   
    214. D(B   9,B  10,B   2,B   0)    174.0755         0.010000   
    215. D(B  10,B  11,B   3,B   4)     -2.6885         0.010000   
    216. D(B  10,B  11,B   3,B   0)     16.7795         0.010000   
    217. D(B   3,B  11,B  10,B   2)     -9.4215         0.010000   
    218. D(B   3,B  11,B  10,B   9)     -8.4844         0.010000   
    -----------------------------------------------------------------

Number of atoms                         .... 12
Number of degrees of freedom            .... 218


         *************************************************************
         *                GEOMETRY OPTIMIZATION CYCLE   1            *
         *************************************************************
---------------------------------
CARTESIAN COORDINATES (ANGSTROEM)
---------------------------------
  B      1.000355   -0.019816    0.363744
  B     -0.475013    0.769650    0.321920
  B     -0.295148   -0.707938    0.162120
  B      2.917525    0.218283   -0.083028
  B      1.831200    2.203372   -0.276114
  B      0.122706    3.032631   -0.136672
  B     -1.761929    2.691524   -0.108507
  B     -2.821606    0.670022   -0.036500
  B     -2.677790   -1.341642   -0.200752
  B     -1.421924   -2.915580   -0.056198
  B      0.695178   -3.037368   -0.113111
  B      2.661890   -1.726327   -0.035921

----------------------------
CARTESIAN COORDINATES (A.U.)
----------------------------
  NO LB      ZA    FRAG     MASS         X           Y           Z
   0 B     5.0000    0    10.810    1.890397   -0.037446    0.687377
   1 B     5.0000    0    10.810   -0.897644    1.454427    0.608340
   2 B     5.0000    0    10.810   -0.557748   -1.337809    0.306363
   3 B     5.0000    0    10.810    5.513324    0.412494   -0.156900
   4 B     5.0000    0    10.810    3.460467    4.163770   -0.521779
   5 B     5.0000    0    10.810    0.231881    5.730842   -0.258272
   6 B     5.0000    0    10.810   -3.329563    5.086243   -0.205049
   7 B     5.0000    0    10.810   -5.332063    1.266157   -0.068976
   8 B     5.0000    0    10.810   -5.060289   -2.535336   -0.379366
   9 B     5.0000    0    10.810   -2.687047   -5.509647   -0.106198
  10 B     5.0000    0    10.810    1.313696   -5.739794   -0.213748
  11 B     5.0000    0    10.810    5.030244   -3.262286   -0.067881

--------------------------------
INTERNAL COORDINATES (ANGSTROEM)
--------------------------------
 B      0   0   0     0.000000000000     0.00000000     0.00000000
 B      1   0   0     1.673832309514     0.00000000     0.00000000
 B      1   2   0     1.480706402290    56.26190878     0.00000000
 B      1   2   3     1.982886159946   142.18128239   147.97677020
 B      4   1   2     2.271115415390    70.22301600     9.73235628
 B      5   4   1     1.904223147342   143.47238852   358.08510869
 B      6   5   4     1.915462361591   143.73588023   341.66425790
 B      7   6   5     2.283544231163   127.92942780     7.59046249
 B      8   7   6     2.023475289060   147.62255175   348.04015559
 B      9   8   7     2.018755608529   144.44020269    24.54506410
 B     10   9   8     2.121365848598   131.58174443   340.37268999
 B      4   1   2     1.961906065721    75.49829166   201.83160263

---------------------------
INTERNAL COORDINATES (A.U.)
---------------------------
 B      0   0   0     0.000000000000     0.00000000     0.00000000
 B      1   0   0     3.163084659090     0.00000000     0.00000000
 B      1   2   0     2.798129585072    56.26190878     0.00000000
 B      1   2   3     3.747111797041   142.18128239   147.97677020
 B      4   1   2     4.291786153614    70.22301600     9.73235628
 B      5   4   1     3.598460246350   143.47238852   358.08510869
 B      6   5   4     3.619699283240   143.73588023   341.66425790
 B      7   6   5     4.315273211594   127.92942780     7.59046249
 B      8   7   6     3.823814135080   147.62255175   348.04015559
 B      9   8   7     3.814895231438   144.44020269    24.54506410
 B     10   9   8     4.008800483704   131.58174443   340.37268999
 B      4   1   2     3.707465164691    75.49829166   201.83160263

---------------------
BASIS SET INFORMATION
---------------------
There are 1 groups of distinct atoms

 Group   1 Type B   : 7s4p1d contracted to 3s2p1d pattern {511/31/1}

Atom   0B    basis set group =>   1
Atom   1B    basis set group =>   1
Atom   2B    basis set group =>   1
Atom   3B    basis set group =>   1
Atom   4B    basis set group =>   1
Atom   5B    basis set group =>   1
Atom   6B    basis set group =>   1
Atom   7B    basis set group =>   1
Atom   8B    basis set group =>   1
Atom   9B    basis set group =>   1
Atom  10B    basis set group =>   1
Atom  11B    basis set group =>   1
---------------------------------
AUXILIARY/J BASIS SET INFORMATION
---------------------------------
There are 1 groups of distinct atoms

 Group   1 Type B   : 12s5p4d2f1g contracted to 6s4p3d1f1g pattern {711111/2111/211/2/1}

Atom   0B    basis set group =>   1
Atom   1B    basis set group =>   1
Atom   2B    basis set group =>   1
Atom   3B    basis set group =>   1
Atom   4B    basis set group =>   1
Atom   5B    basis set group =>   1
Atom   6B    basis set group =>   1
Atom   7B    basis set group =>   1
Atom   8B    basis set group =>   1
Atom   9B    basis set group =>   1
Atom  10B    basis set group =>   1
Atom  11B    basis set group =>   1


           ************************************************************
           *        Program running with 8 parallel MPI-processes     *
           *              working on a common directory               *
           ************************************************************
------------------------------------------------------------------------------
                             ORCA STARTUP CALCULATIONS
                           -- RI-GTO INTEGRALS CHOSEN --
------------------------------------------------------------------------------
------------------------------------------------------------------------------
                   ___                                                        
                  /   \      - P O W E R E D   B Y -                         
                 /     \                                                     
                 |  |  |   _    _      __       _____    __    __             
                 |  |  |  | |  | |    /  \     |  _  \  |  |  /  |          
                  \  \/   | |  | |   /    \    | | | |  |  | /  /          
                 / \  \   | |__| |  /  /\  \   | |_| |  |  |/  /          
                |  |  |   |  __  | /  /__\  \  |    /   |      \           
                |  |  |   | |  | | |   __   |  |    \   |  |\   \          
                \     /   | |  | | |  |  |  |  | |\  \  |  | \   \       
                 \___/    |_|  |_| |__|  |__|  |_| \__\ |__|  \__/        
                                                                              
                      - O R C A' S   B I G   F R I E N D -                    
                                      &                                       
                       - I N T E G R A L  F E E D E R -                       
                                                                              
 v1 FN, 2020, v2 2021, v3 2022-2024                                           
------------------------------------------------------------------------------


----------------------
SHARK INTEGRAL PACKAGE
----------------------

Number of atoms                             ...     12
Number of basis functions                   ...    168
Number of shells                            ...     72
Maximum angular momentum                    ...      2
Integral batch strategy                     ... SHARK/LIBINT Hybrid
RI-J (if used) integral strategy            ... SPLIT-RIJ (Revised 2003 algorithm where possible)
Printlevel                                  ...      1
Contraction scheme used                     ... SEGMENTED contraction
Prescreening option                         ... SCHWARTZ
   Thresh                                   ... 2.500e-11
   Tcut                                     ... 2.500e-12
   Tpresel                                  ... 2.500e-12 
Coulomb Range Separation                    ... NOT USED
Exchange Range Separation                   ... NOT USED
Multipole approximations                    ... NOT USED
Finite Nucleus Model                        ... NOT USED
CABS basis                                  ... NOT available
Auxiliary Coulomb fitting basis             ... AVAILABLE
   # of basis functions in Aux-J            ...    588
   # of shells in Aux-J                     ...    180
   Maximum angular momentum in Aux-J        ...      4
Auxiliary J/K fitting basis                 ... NOT available
Auxiliary Correlation fitting basis         ... NOT available
Auxiliary 'external' fitting basis          ... NOT available

Checking pre-screening integrals            ... done (  0.0 sec) Dimension = 72
   => SHARK Basis and OBASIS are compatible. Storing Pre-screening
Shell pair information
Shell pair cut-off parameter TPreSel        ...   2.5e-12
Total number of shell pairs                 ...      2628
Shell pairs after pre-screening             ...      2486
Total number of primitive shell pairs       ...     10596
Primitive shell pairs kept                  ...      7081
          la=0 lb=0:    597 shell pairs
          la=1 lb=0:    830 shell pairs
          la=1 lb=1:    300 shell pairs
          la=2 lb=0:    396 shell pairs
          la=2 lb=1:    288 shell pairs
          la=2 lb=2:     75 shell pairs

Checking whether 4 symmetric matrices of dimension 168 fit in memory
:Max Core in MB      =   2500.00
 MB in use           =      6.68
 MB left             =   2493.32
 MB needed           =      0.43
 Data fit in memory  = YES
Calculating RI/J V-Matrix + Cholesky decomp.... done (  0.1 sec)
Calculating Nuclear repulsion               ... done (  0.0 sec) ENN=    274.062609560146 Eh

Diagonalization of the overlap matrix:
Smallest eigenvalue                        ... 4.072e-04
Time for diagonalization                   ...    0.004 sec
Threshold for overlap eigenvalues          ... 1.000e-07
Number of eigenvalues below threshold      ... 0
Time for construction of square roots      ...    0.003 sec
Total time needed                          ...    0.010 sec

-------------------
DFT GRID GENERATION
-------------------

General Integration Accuracy     IntAcc      ... 4.388
Radial Grid Type                 RadialGrid  ... OptM3 with GC (2021)
Angular Grid (max. ang.)         AngularGrid ... 4 (Lebedev-302)
Angular grid pruning method      GridPruning ... 4 (adaptive)
Weight generation scheme         WeightScheme... mBecke (2022)
Basis function cutoff            BFCut       ... 1.0000e-11
Integration weight cutoff        WCut        ... 1.0000e-14
Partially contracted basis set               ... off
Rotationally invariant grid construction     ... off
Angular grids for H and He will be reduced by one unit

Total number of grid points                  ...    72118
Total number of batches                      ...     1133
Average number of points per batch           ...       63
Average number of grid points per atom       ...     6010
Grids setup in   0.7 sec
Initializing property integral containers    ... done (  0.0 sec)

SHARK setup successfully completed in   1.0 seconds

Maximum memory used throughout the entire STARTUP-calculation: 19.8 MB


           ************************************************************
           *        Program running with 8 parallel MPI-processes     *
           *              working on a common directory               *
           ************************************************************
-------------------------------------------------------------------------------
                                 ORCA GUESS
                   Start orbitals & Density for SCF / CASSCF
-------------------------------------------------------------------------------

------------
SCF SETTINGS
------------
Hamiltonian:
 Density Functional     Method          .... DFT(GTOs)
 Exchange Functional    Exchange        .... B88
   X-Alpha parameter    XAlpha          ....  0.666667
   Becke's b parameter  XBeta           ....  0.004200
 Correlation Functional Correlation     .... P86
 LDA part of GGA corr.  LDAOpt          .... PW91-LDA
 Gradients option       PostSCFGGA      .... off
   NL short-range parameter             ....  4.400000
 RI-approximation to the Coulomb term is turned on
   Number of AuxJ basis functions       .... 588


General Settings:
 Integral files         IntName         .... quasi_planar_nn1.70_perturb0
 Hartree-Fock type      HFTyp           .... RHF
 Total Charge           Charge          ....    0
 Multiplicity           Mult            ....    1
 Number of Electrons    NEL             ....   60
 Basis Dimension        Dim             ....  168
 Nuclear Repulsion      ENuc            ....    274.0626095601 Eh

Convergence Acceleration:
 AO-DIIS                CNVDIIS         .... on
   Start iteration      DIISMaxIt       ....     0
   Startup error        DIISStart       ....  0.200000
   # of expansion vecs  DIISMaxEq       ....     5
   Bias factor          DIISBfac        ....   1.050
   Max. coefficient     DIISMaxC        ....  10.000
 MO-DIIS                CNVKDIIS        .... off
 Trust-Rad. Augm. Hess. CNVTRAH         .... auto
   Auto Start mean grad. ratio tolernc. ....  1.125000
   Auto Start start iteration           ....    50
   Auto Start num. interpolation iter.  ....    10
   Max. Number of Micro iterations      ....    24
   Max. Number of Macro iterations      .... Maxiter - #DIIS iter
   Number of Davidson start vectors     ....     2
   Converg. threshold    (grad. norm)   ....   1.000e-05
   Grad. Scal. Fac. for Micro threshold ....   0.100
   Minimum threshold for Micro iter.    ....   1.000e-02
   NR start threshold (gradient norm)   ....   1.000e-04
   Initial trust radius                 ....   0.400
   Minimum AH scaling param. (alpha)    ....   1.000
   Maximum AH scaling param. (alpha)    .... 1000.000
   Quad. conv. algorithm                .... NR
   White noise on init. David. guess    .... on
   Maximum white noise                  ....   0.010
   Pseudo random numbers                .... off
   Inactive MOs                         .... canonical
   Orbital update algorithm             .... Taylor
   Preconditioner                       .... Diag
   Full preconditioner red. dimension   ....   250
 SOSCF                 CNVSOSCF           .... on
   Start iteration     SOSCFMaxIt         ....   150
   Startup grad/error  SOSCFStart         ....  0.001000
   Hessian update      SOSCFHessUp        .... L-BFGS
   Autom. constraints  SOSCFAutoConstrain .... off
 Level Shifting         CNVShift        .... on
   Level shift para.    LevelShift      ....    0.2500
   Turn off err/grad.   ShiftErr        ....    0.0000
 Zerner damping         CNVZerner       .... off
 Static damping         CNVDamp         .... on
   Fraction old density DampFac         ....    0.8500
   Max. Damping (<1)    DampMax         ....    0.9800
   Min. Damping (>=0)   DampMin         ....    0.0000
   Turn off err/grad.   DampErr         ....    0.0300

SCF Procedure:
 Maximum # iterations   MaxIter         ....   125
 SCF integral mode      SCFMode         .... Direct
   Integral package                     .... SHARK and LIBINT hybrid scheme
 Reset frequency        DirectResetFreq ....    20
 Integral Threshold     Thresh          ....  2.500e-11 Eh
 Primitive CutOff       TCut            ....  2.500e-12 Eh

Convergence Tolerance:
 Convergence Check Mode ConvCheckMode   .... Total+1el-Energy
 Convergence forced     ConvForced      .... 0
 Energy Change          TolE            ....  1.000e-08 Eh
 1-El. energy change                    ....  1.000e-05 Eh
 Orbital Gradient       TolG            ....  1.000e-05
 Orbital Rotation angle TolX            ....  1.000e-05
 DIIS Error             TolErr          ....  5.000e-07

------------------------------
INITIAL GUESS: MODEL POTENTIAL
------------------------------
Loading Hartree-Fock densities                     ... done
Calculating cut-offs                               ... done
Initializing the effective Hamiltonian             ... done
Setting up the integral package (SHARK)            ... done
Starting the Coulomb interaction                   ... done (   0.0 sec)
Making the grid                                    ... done (   0.2 sec)
Mapping shells                                     ... done
Starting the XC term evaluation                    ... done (   0.0 sec)
  promolecular density results
     # of electrons  =     60.000114866
     EX              =    -44.984931345
     EC              =     -1.861571448
     EX+EC           =    -46.846502793
Transforming the Hamiltonian                       ... done (   0.0 sec)
Diagonalizing the Hamiltonian                      ... done (   0.0 sec)
Back transforming the eigenvectors                 ... done (   0.0 sec)
Now organizing SCF variables                       ... done
                      ------------------
                      INITIAL GUESS DONE (   0.3 sec)
                      ------------------
             **** ENERGY FILE WAS UPDATED (quasi_planar_nn1.70_perturb0.en.tmp) ****
Finished Guess after   0.9 sec
Maximum memory used throughout the entire GUESS-calculation: 9.5 MB


           ************************************************************
           *        Program running with 8 parallel MPI-processes     *
           *              working on a common directory               *
           ************************************************************

-------------------------------------------------------------------------------------------
                                      ORCA LEAN-SCF
                              memory conserving SCF solver
-------------------------------------------------------------------------------------------

----------------------------------------D-I-I-S--------------------------------------------
Iteration    Energy (Eh)           Delta-E    RMSDP     MaxDP     DIISErr   Damp  Time(sec)
-------------------------------------------------------------------------------------------
               ***  Starting incremental Fock matrix formation  ***
    1    -295.9723163283892404     0.00e+00  1.57e-02  1.61e-01  2.34e-01  0.850   0.3
Warning: op=0 Small HOMO/LUMO gap (  -0.174) - skipping pre-diagonalization
         LevelShift set to 0.274 Eh
         Will do a full diagonalization
    2    -296.4322425056281531    -4.60e-01  1.19e-02  7.40e-02  1.07e-01  0.850   0.4
                               ***Turning on AO-DIIS***
    3    -296.3924277780174066     3.98e-02  8.49e-03  5.13e-02  4.62e-02  0.850   0.4
    4    -296.3132638609893661     7.92e-02  6.56e-03  3.83e-02  8.42e-02  0.850   0.3
    5    -296.3147252054585010    -1.46e-03  5.29e-03  2.77e-02  1.01e-01  0.850   0.3
    6    -296.3634978392188373    -4.88e-02  4.23e-03  2.10e-02  1.02e-01  0.850   0.5
    7    -296.4259007189806994    -6.24e-02  3.47e-03  2.00e-02  9.49e-02  0.850   0.3
    8    -296.4938662689538091    -6.80e-02  3.50e-03  1.91e-02  8.16e-02  0.850   0.3
    9    -296.5709910677011862    -7.71e-02  3.58e-03  2.02e-02  6.03e-02  0.850   0.3
   10    -296.6343460341685727    -6.34e-02  3.35e-03  1.99e-02  3.95e-02  0.850   0.4
   11    -296.6805993020896608    -4.63e-02  2.84e-03  1.48e-02  2.41e-02  0.850   0.3
   12    -296.7142583928654744    -3.37e-02  1.59e-02  7.50e-02  1.43e-02  0.000   0.8
   13    -296.8382867623068364    -1.24e-01  3.18e-03  1.82e-02  4.99e-02  0.000   1.4
   14    -296.8547944618797487    -1.65e-02  3.71e-04  2.25e-03  3.76e-02  0.850   0.7
   15    -296.8564341502882939    -1.64e-03  5.91e-04  3.53e-03  3.64e-02  0.850   1.1
   16    -296.8588161252743589    -2.38e-03  7.48e-04  4.25e-03  3.46e-02  0.850   0.4
   17    -296.8615850951450170    -2.77e-03  1.24e-03  7.25e-03  3.26e-02  0.850   0.5
   18    -296.8670554826570083    -5.47e-03  1.24e-03  6.83e-03  2.69e-02  0.850   0.3
   19    -296.8716852021318005    -4.63e-03  7.41e-03  3.89e-02  2.11e-02  0.000   0.4
   20    -296.8816179169833163    -9.93e-03  1.36e-03  7.34e-03  1.34e-02  0.000   0.4
               *** Restarting incremental Fock matrix formation ***
                             ****Resetting DIIS****
Warning: op=0 Small HOMO/LUMO gap (   0.004) - skipping pre-diagonalization
         Will do a full diagonalization
   21    -296.8836616156067407    -2.04e-03  7.93e-03  3.97e-02  7.46e-03  0.000   0.4
   22    -296.8569406674059223     2.67e-02  3.38e-03  1.73e-02  5.01e-02  0.000   0.3
   23    -296.8790202256499811    -2.21e-02  2.91e-04  1.14e-03  2.59e-02  0.850   0.3
   24    -296.8801672515950827    -1.15e-03  3.06e-03  1.19e-02  2.43e-02  0.000   0.4
   25    -296.8872630856672572    -7.10e-03  1.21e-03  6.84e-03  1.07e-02  0.000   0.3
   26    -296.8881869402658253    -9.24e-04  1.46e-03  9.31e-03  6.21e-03  0.000   0.3
   27    -296.8885808146578142    -3.94e-04  9.13e-04  6.78e-03  4.40e-03  0.000   0.3
   28    -296.8889059443379779    -3.25e-04  6.06e-04  2.63e-03  1.55e-03  0.000   0.9
   29    -296.8889958219114646    -8.99e-05  5.16e-04  2.93e-03  1.17e-03  0.000   0.3
                              *** Initializing SOSCF ***
---------------------------------------S-O-S-C-F--------------------------------------
Iteration    Energy (Eh)           Delta-E    RMSDP     MaxDP     MaxGrad    Time(sec)
--------------------------------------------------------------------------------------
   30    -296.8890494785597980    -5.37e-05  4.11e-04  1.38e-03  9.21e-04     0.3
               *** Restarting incremental Fock matrix formation ***
   31    -296.8891005354317372    -5.11e-05  4.56e-04  3.17e-03  7.23e-04     0.3
   32    -296.8890868646458898     1.37e-05  4.55e-04  2.68e-03  1.06e-03     0.3
   33    -296.8891519142779885    -6.50e-05  8.83e-04  5.53e-03  6.72e-04     0.4
   34    -296.8891091476495490     4.28e-05  3.87e-04  3.05e-03  1.13e-03     0.3
   35    -296.8892061039713894    -9.70e-05  4.00e-04  2.61e-03  2.62e-04     0.3
   36    -296.8892014942596802     4.61e-06  2.92e-04  1.16e-03  7.19e-04     0.3
   37    -296.8892201252696736    -1.86e-05  1.90e-04  1.37e-03  1.59e-04     0.4
   38    -296.8892162556717835     3.87e-06  9.57e-05  9.22e-04  2.60e-04     0.5
   39    -296.8892216122976038    -5.36e-06  1.34e-04  1.58e-03  1.99e-04     0.4
   40    -296.8892145635637121     7.05e-06  9.87e-05  1.19e-03  3.80e-04     0.4
   41    -296.8892225730918994    -8.01e-06  4.40e-05  4.71e-04  3.77e-05     0.3
   42    -296.8892224147028287     1.58e-07  2.60e-05  3.20e-04  6.52e-05     0.3
   43    -296.8892228187241358    -4.04e-07  2.79e-05  1.63e-04  2.55e-05     0.3
   44    -296.8892228615641784    -4.28e-08  2.94e-05  1.17e-04  2.28e-05     0.5
   45    -296.8892229523347055    -9.08e-08  2.19e-05  1.27e-04  8.51e-06     0.4
   46    -296.8892229676220609    -1.53e-08  7.56e-06  4.76e-05  5.44e-06     0.3
   47    -296.8892229716801126    -4.06e-09  4.75e-06  3.96e-05  8.40e-06     0.5
                 **** Energy Check signals convergence ****

               *****************************************************
               *                     SUCCESS                       *
               *           SCF CONVERGED AFTER  47 CYCLES          *
               *****************************************************

             **** ENERGY FILE WAS UPDATED (quasi_planar_nn1.70_perturb0.en.tmp) ****

----------------
TOTAL SCF ENERGY
----------------

Total Energy       :       -296.88922297311791 Eh           -8078.76647 eV

Components:
Nuclear Repulsion  :        274.06260956014563 Eh            7457.62274 eV
Electronic Energy  :       -570.95183253326354 Eh          -15536.38922 eV
One Electron Energy:       -936.22503938292084 Eh          -25475.97850 eV
Two Electron Energy:        365.27320684965730 Eh            9939.58928 eV

Virial components:
Potential Energy   :       -587.35334802965178 Eh          -15982.69714 eV
Kinetic Energy     :        290.46412505653387 Eh            7903.93067 eV
Virial Ratio       :          2.02212010834499

DFT components:
N(Alpha)           :       29.999991631870 electrons
N(Beta)            :       29.999991631870 electrons
N(Total)           :       59.999983263740 electrons
E(X)               :      -45.177653211189 Eh       
E(C)               :       -1.896127522560 Eh       
E(XC)              :      -47.073780733749 Eh       

---------------
SCF CONVERGENCE
---------------

  Last Energy change         ...    4.0581e-09  Tolerance :   1.0000e-08
  Last MAX-Density change    ...    3.9612e-05  Tolerance :   1.0000e-07
  Last RMS-Density change    ...    4.7533e-06  Tolerance :   5.0000e-09
  Last DIIS Error            ...    9.2071e-04  Tolerance :   5.0000e-07
  Last Orbital Gradient      ...    8.4013e-06  Tolerance :   1.0000e-05
  Last Orbital Rotation      ...    2.4846e-05  Tolerance :   1.0000e-05


----------------
ORBITAL ENERGIES
----------------

  NO   OCC          E(Eh)            E(eV) 
   0   2.0000      -6.684225      -181.8870 
   1   2.0000      -6.672720      -181.5739 
   2   2.0000      -6.669148      -181.4767 
   3   2.0000      -6.664386      -181.3472 
   4   2.0000      -6.658234      -181.1798 
   5   2.0000      -6.655380      -181.1021 
   6   2.0000      -6.647431      -180.8858 
   7   2.0000      -6.643459      -180.7777 
   8   2.0000      -6.639478      -180.6694 
   9   2.0000      -6.591002      -179.3503 
  10   2.0000      -6.570175      -178.7836 
  11   2.0000      -6.567369      -178.7072 
  12   2.0000      -0.599122       -16.3029 
  13   2.0000      -0.488526       -13.2935 
  14   2.0000      -0.485827       -13.2200 
  15   2.0000      -0.475990       -12.9523 
  16   2.0000      -0.433558       -11.7977 
  17   2.0000      -0.419139       -11.4053 
  18   2.0000      -0.365275        -9.9396 
  19   2.0000      -0.352925        -9.6036 
  20   2.0000      -0.316631        -8.6160 
  21   2.0000      -0.301445        -8.2027 
  22   2.0000      -0.289141        -7.8679 
  23   2.0000      -0.285184        -7.7602 
  24   2.0000      -0.276031        -7.5112 
  25   2.0000      -0.267024        -7.2661 
  26   2.0000      -0.221717        -6.0332 
  27   2.0000      -0.211401        -5.7525 
  28   2.0000      -0.206482        -5.6187 
  29   2.0000      -0.203661        -5.5419 
  30   0.0000      -0.194648        -5.2966 
  31   0.0000      -0.188611        -5.1324 
  32   0.0000      -0.175967        -4.7883 
  33   0.0000      -0.163413        -4.4467 
  34   0.0000      -0.150179        -4.0866 
  35   0.0000      -0.136695        -3.7197 
  36   0.0000      -0.134405        -3.6573 
  37   0.0000      -0.125518        -3.4155 
  38   0.0000      -0.118159        -3.2153 
  39   0.0000      -0.105813        -2.8793 
  40   0.0000      -0.087629        -2.3845 
*Only the first 10 virtual orbitals were printed.

                    ********************************
                    * MULLIKEN POPULATION ANALYSIS *
                    ********************************

-----------------------
MULLIKEN ATOMIC CHARGES
-----------------------
   0 B :   -0.308973
   1 B :   -0.237148
   2 B :    0.047136
   3 B :    0.040774
   4 B :    0.078299
   5 B :    0.026827
   6 B :    0.051181
   7 B :    0.060439
   8 B :    0.049706
   9 B :    0.041243
  10 B :    0.089883
  11 B :    0.060632
Sum of atomic charges:   -0.0000000

--------------------------------
MULLIKEN REDUCED ORBITAL CHARGES
--------------------------------
  0 B s       :     3.098016  s :     3.098016
      pz      :     0.666549  p :     2.170991
      px      :     0.719021
      py      :     0.785421
      dz2     :     0.004101  d :     0.039966
      dxz     :     0.008034
      dyz     :     0.002316
      dx2y2   :     0.014426
      dxy     :     0.011088

  1 B s       :     3.022041  s :     3.022041
      pz      :     0.585528  p :     2.172774
      px      :     0.764909
      py      :     0.822338
      dz2     :     0.003875  d :     0.042333
      dxz     :     0.004807
      dyz     :     0.008255
      dx2y2   :     0.010343
      dxy     :     0.015052

  2 B s       :     2.647132  s :     2.647132
      pz      :     0.602662  p :     2.258942
      px      :     0.851062
      py      :     0.805219
      dz2     :     0.004241  d :     0.046790
      dxz     :     0.004761
      dyz     :     0.008069
      dx2y2   :     0.013594
      dxy     :     0.016126

  3 B s       :     3.285492  s :     3.285492
      pz      :     0.433790  p :     1.653872
      px      :     0.632372
      py      :     0.587710
      dz2     :     0.001939  d :     0.019862
      dxz     :     0.002490
      dyz     :     0.001683
      dx2y2   :     0.007241
      dxy     :     0.006509

  4 B s       :     3.364494  s :     3.364494
      pz      :     0.395690  p :     1.540187
      px      :     0.608759
      py      :     0.535738
      dz2     :     0.001566  d :     0.017019
      dxz     :     0.002361
      dyz     :     0.001787
      dx2y2   :     0.005590
      dxy     :     0.005715

  5 B s       :     3.239608  s :     3.239608
      pz      :     0.535035  p :     1.716237
      px      :     0.678286
      py      :     0.502917
      dz2     :     0.001784  d :     0.017327
      dxz     :     0.001112
      dyz     :     0.001505
      dx2y2   :     0.006892
      dxy     :     0.006034

  6 B s       :     3.357703  s :     3.357703
      pz      :     0.408978  p :     1.575286
      px      :     0.612479
      py      :     0.553829
      dz2     :     0.001762  d :     0.015830
      dxz     :     0.001955
      dyz     :     0.001005
      dx2y2   :     0.005117
      dxy     :     0.005992

  7 B s       :     3.374058  s :     3.374058
      pz      :     0.486924  p :     1.550616
      px      :     0.402495
      py      :     0.661196
      dz2     :     0.001530  d :     0.014887
      dxz     :     0.000974
      dyz     :     0.001483
      dx2y2   :     0.006056
      dxy     :     0.004843

  8 B s       :     3.312719  s :     3.312719
      pz      :     0.558665  p :     1.623255
      px      :     0.427244
      py      :     0.637345
      dz2     :     0.001631  d :     0.014320
      dxz     :     0.001123
      dyz     :     0.001090
      dx2y2   :     0.005735
      dxy     :     0.004742

  9 B s       :     3.341278  s :     3.341278
      pz      :     0.450367  p :     1.604245
      px      :     0.620406
      py      :     0.533472
      dz2     :     0.001645  d :     0.013234
      dxz     :     0.000729
      dyz     :     0.001275
      dx2y2   :     0.004544
      dxy     :     0.005041

 10 B s       :     3.489495  s :     3.489495
      pz      :     0.352156  p :     1.408611
      px      :     0.648828
      py      :     0.407627
      dz2     :     0.001276  d :     0.012011
      dxz     :     0.001184
      dyz     :     0.000657
      dx2y2   :     0.004547
      dxy     :     0.004346

 11 B s       :     3.476574  s :     3.476574
      pz      :     0.405033  p :     1.447681
      px      :     0.500176
      py      :     0.542471
      dz2     :     0.001692  d :     0.015113
      dxz     :     0.000699
      dyz     :     0.002017
      dx2y2   :     0.004771
      dxy     :     0.005934



                     *******************************
                     * LOEWDIN POPULATION ANALYSIS *
                     *******************************

----------------------
LOEWDIN ATOMIC CHARGES
----------------------
   0 B :   -0.135652
   1 B :   -0.022143
   2 B :   -0.093392
   3 B :   -0.040065
   4 B :    0.122694
   5 B :   -0.045013
   6 B :   -0.018787
   7 B :    0.075725
   8 B :    0.009717
   9 B :   -0.032696
  10 B :    0.114979
  11 B :    0.064633

-------------------------------
LOEWDIN REDUCED ORBITAL CHARGES
-------------------------------
  0 B s       :     2.701750  s :     2.701750
      pz      :     0.633418  p :     2.327356
      px      :     0.883198
      py      :     0.810740
      dz2     :     0.012309  d :     0.106546
      dxz     :     0.016825
      dyz     :     0.004267
      dx2y2   :     0.042901
      dxy     :     0.030245

  1 B s       :     2.718820  s :     2.718820
      pz      :     0.557018  p :     2.202408
      px      :     0.794287
      py      :     0.851104
      dz2     :     0.011098  d :     0.100915
      dxz     :     0.008203
      dyz     :     0.015971
      dx2y2   :     0.025601
      dxy     :     0.040042

  2 B s       :     2.687687  s :     2.687687
      pz      :     0.581141  p :     2.294378
      px      :     0.870097
      py      :     0.843140
      dz2     :     0.012353  d :     0.111327
      dxz     :     0.009761
      dyz     :     0.015276
      dx2y2   :     0.034272
      dxy     :     0.039665

  3 B s       :     3.007336  s :     3.007336
      pz      :     0.456720  p :     1.987069
      px      :     0.766443
      py      :     0.763907
      dz2     :     0.005142  d :     0.045660
      dxz     :     0.004814
      dyz     :     0.002754
      dx2y2   :     0.020111
      dxy     :     0.012839

  4 B s       :     3.118745  s :     3.118745
      pz      :     0.401158  p :     1.725901
      px      :     0.711849
      py      :     0.612895
      dz2     :     0.003342  d :     0.032660
      dxz     :     0.003647
      dyz     :     0.002780
      dx2y2   :     0.012049
      dxy     :     0.010843

  5 B s       :     3.001174  s :     3.001174
      pz      :     0.541202  p :     2.003571
      px      :     0.888917
      py      :     0.573452
      dz2     :     0.004918  d :     0.040267
      dxz     :     0.001994
      dyz     :     0.002402
      dx2y2   :     0.015388
      dxy     :     0.015565

  6 B s       :     3.113594  s :     3.113594
      pz      :     0.424006  p :     1.871065
      px      :     0.770743
      py      :     0.676316
      dz2     :     0.004303  d :     0.034129
      dxz     :     0.003210
      dyz     :     0.001594
      dx2y2   :     0.013799
      dxy     :     0.011222

  7 B s       :     3.140290  s :     3.140290
      pz      :     0.490686  p :     1.755169
      px      :     0.468335
      py      :     0.796148
      dz2     :     0.003123  d :     0.028816
      dxz     :     0.001379
      dyz     :     0.002382
      dx2y2   :     0.014180
      dxy     :     0.007752

  8 B s       :     3.086240  s :     3.086240
      pz      :     0.563466  p :     1.873453
      px      :     0.507419
      py      :     0.802568
      dz2     :     0.003731  d :     0.030589
      dxz     :     0.001615
      dyz     :     0.001856
      dx2y2   :     0.013273
      dxy     :     0.010114

  9 B s       :     3.120894  s :     3.120894
      pz      :     0.456712  p :     1.881703
      px      :     0.782611
      py      :     0.642380
      dz2     :     0.004029  d :     0.030099
      dxz     :     0.001216
      dyz     :     0.001936
      dx2y2   :     0.011381
      dxy     :     0.011537

 10 B s       :     3.267667  s :     3.267667
      pz      :     0.352409  p :     1.595075
      px      :     0.780549
      py      :     0.462116
      dz2     :     0.002683  d :     0.022279
      dxz     :     0.001707
      dyz     :     0.000771
      dx2y2   :     0.009291
      dxy     :     0.007827

 11 B s       :     3.219373  s :     3.219373
      pz      :     0.409452  p :     1.686044
      px      :     0.589019
      py      :     0.687573
      dz2     :     0.004069  d :     0.029951
      dxz     :     0.000940
      dyz     :     0.002955
      dx2y2   :     0.011645
      dxy     :     0.010342



                      *****************************
                      * MAYER POPULATION ANALYSIS *
                      *****************************

  NA   - Mulliken gross atomic population
  ZA   - Total nuclear charge
  QA   - Mulliken gross atomic charge
  VA   - Mayer's total valence
  BVA  - Mayer's bonded valence
  FA   - Mayer's free valence

  ATOM       NA         ZA         QA         VA         BVA        FA
  0 B      5.3090     5.0000    -0.3090     3.9688     3.9688    -0.0000
  1 B      5.2371     5.0000    -0.2371     3.9980     3.9980    -0.0000
  2 B      4.9529     5.0000     0.0471     3.8432     3.8432    -0.0000
  3 B      4.9592     5.0000     0.0408     3.1632     3.1632    -0.0000
  4 B      4.9217     5.0000     0.0783     3.0438     3.0438    -0.0000
  5 B      4.9732     5.0000     0.0268     3.3230     3.3230    -0.0000
  6 B      4.9488     5.0000     0.0512     3.0709     3.0709    -0.0000
  7 B      4.9396     5.0000     0.0604     3.0686     3.0686    -0.0000
  8 B      4.9503     5.0000     0.0497     3.1837     3.1837    -0.0000
  9 B      4.9588     5.0000     0.0412     3.1156     3.1156    -0.0000
 10 B      4.9101     5.0000     0.0899     2.7956     2.7956    -0.0000
 11 B      4.9394     5.0000     0.0606     2.8915     2.8915    -0.0000

  Mayer bond orders larger than 0.100000
B(  0-B ,  1-B ) :   0.9593 B(  0-B ,  2-B ) :   1.1471 B(  0-B ,  3-B ) :   0.7113 
B(  0-B ,  4-B ) :   0.3654 B(  0-B , 10-B ) :   0.1207 B(  0-B , 11-B ) :   0.4429 
B(  1-B ,  2-B ) :   1.1322 B(  1-B ,  4-B ) :   0.2360 B(  1-B ,  5-B ) :   0.4969 
B(  1-B ,  6-B ) :   0.4749 B(  1-B ,  7-B ) :   0.4217 B(  2-B ,  7-B ) :   0.1483 
B(  2-B ,  8-B ) :   0.3738 B(  2-B ,  9-B ) :   0.4235 B(  2-B , 10-B ) :   0.3885 
B(  3-B ,  4-B ) :   0.8460 B(  3-B ,  7-B ) :   0.1255 B(  3-B ,  8-B ) :   0.1320 
B(  3-B , 11-B ) :   1.0044 B(  4-B ,  5-B ) :   1.0411 B(  4-B ,  9-B ) :   0.1561 
B(  5-B ,  6-B ) :   1.1310 B(  5-B ,  7-B ) :   0.1016 B(  5-B ,  9-B ) :   0.1127 
B(  5-B , 10-B ) :   0.1648 B(  6-B ,  7-B ) :   0.8735 B(  6-B , 11-B ) :   0.1443 
B(  7-B ,  8-B ) :   1.0266 B(  7-B ,  9-B ) :   0.1191 B(  7-B , 11-B ) :   0.1314 
B(  8-B ,  9-B ) :   1.1062 B(  8-B , 10-B ) :   0.1135 B(  9-B , 10-B ) :   0.9344 
B( 10-B , 11-B ) :   0.7213 

-------
TIMINGS
-------

Total SCF time: 0 days 0 hours 0 min 20 sec 

Total time                  ....      20.827 sec
Sum of individual times     ....      20.302 sec  ( 97.5%)

SCF preparation             ....       0.461 sec  (  2.2%)
Fock matrix formation       ....      15.857 sec  ( 76.1%)
  Startup                   ....       0.025 sec  (  0.2% of F)
  Split-RI-J                ....       5.300 sec  ( 33.4% of F)
  XC integration            ....       9.656 sec  ( 60.9% of F)
    XC Preparation          ....       0.000 sec  (  0.0% of XC)
    Basis function eval.    ....       1.823 sec  ( 18.9% of XC)
    Density eval.           ....       1.142 sec  ( 11.8% of XC)
    XC-Functional eval.     ....       0.283 sec  (  2.9% of XC)
    XC-Potential eval.      ....       1.301 sec  ( 13.5% of XC)
Diagonalization             ....       0.000 sec  (  0.0%)
Density matrix formation    ....       0.587 sec  (  2.8%)
Total Energy calculation    ....       0.362 sec  (  1.7%)
Population analysis         ....       0.342 sec  (  1.6%)
Orbital Transformation      ....       0.080 sec  (  0.4%)
Orbital Orthonormalization  ....       0.000 sec  (  0.0%)
DIIS solution               ....       1.931 sec  (  9.3%)
SOSCF solution              ....       0.682 sec  (  3.3%)
Finished LeanSCF after  20.9 sec

Maximum memory used throughout the entire LEANSCF-calculation: 9.9 MB


-------------------------------------------------------------------------------
                          DFT DISPERSION CORRECTION                            
                                                                               
                              DFTD3 V3.1  Rev 1                                
                          USING Becke-Johnson damping                          
-------------------------------------------------------------------------------
The BP86 functional is recognized
Active option DFTDOPT                   ...         4   

molecular C6(AA) [au] = 9272.207001 


            DFT-D V3
 parameters
 s6 scaling factor         :     1.0000 
 a1 scaling factor         :     0.3946 
 s8 scaling factor         :     3.2822 
 a2 scaling factor         :     4.8516 
 ad hoc parameters k1-k3   :    16.0000     1.3333    -4.0000 

 Edisp/kcal,au: -31.793412405749  -0.050666022313 
 E6   /kcal   :  -9.303793364 
 E8   /kcal   : -22.489619042 
 % E8         :  70.736726071 

-------------------------   ----------------
Dispersion correction           -0.050666022
-------------------------   ----------------


-------------------------   --------------------
FINAL SINGLE POINT ENERGY      -296.939888995431
-------------------------   --------------------



           ************************************************************
           *        Program running with 8 parallel MPI-processes     *
           *              working on a common directory               *
           ************************************************************
------------------------------------------------------------------------------
                         ORCA SCF GRADIENT CALCULATION
------------------------------------------------------------------------------

Nuc. rep. gradient        (SHARK) ... done (  0.0 sec)
HCore & Overlap gradient  (SHARK) ... done (  0.1 sec)
Split-RIJ-J gradient      (SHARK) ... done (  0.4 sec)
XC gradient                       ... done (  0.8 sec)
Dispersion correction             ... done (  0.1 sec)

-------------------
DISPERSION GRADIENT
-------------------

   1   B   :    0.004176719    0.000866402   -0.000849950
   2   B   :   -0.001368572    0.003049582   -0.000614585
   3   B   :   -0.000805515   -0.001640446    0.000001195
   4   B   :   -0.003606284   -0.002053790    0.000773477
   5   B   :   -0.000239890    0.000062446    0.000231275
   6   B   :   -0.000511154   -0.001421313    0.000127964
   7   B   :    0.001566297   -0.000288629    0.000227882
   8   B   :    0.000599547   -0.001037681    0.000023102
   9   B   :    0.000189101    0.000311079    0.000242951
  10   B   :    0.001617180    0.000183434   -0.000223388
  11   B   :   -0.001994291   -0.000096535    0.000113135
  12   B   :    0.000376863    0.002065452   -0.000053058

Difference to translation invariance:
           :   -0.0000000000    0.0000000000    0.0000000000

Difference to rotation invariance:
           :   -0.0000000000    0.0000000000    0.0000000000

Norm of the Dispersion gradient    ...    0.0083287976
RMS gradient                       ...    0.0013881329
MAX gradient                       ...    0.0041767187

------------------
CARTESIAN GRADIENT
------------------

   1   B   :   -0.134485612   -0.032447093    0.011781256
   2   B   :    0.038008361   -0.131459384    0.017812822
   3   B   :    0.089242408    0.159051479    0.019537796
   4   B   :    0.084646597    0.013361435   -0.008216003
   5   B   :    0.042737408    0.050020703   -0.015567561
   6   B   :    0.024151907    0.074222301   -0.008629264
   7   B   :   -0.055024245    0.066411073   -0.001091035
   8   B   :   -0.071688423    0.011291868   -0.004428038
   9   B   :   -0.068442941   -0.013102387   -0.005452084
  10   B   :   -0.029118740   -0.083251373   -0.002733883
  11   B   :    0.036336740   -0.064032604   -0.002570575
  12   B   :    0.043636539   -0.050066018   -0.000443431

Difference to translation invariance:
           :    0.0000000000   -0.0000000000    0.0000000000

Difference to rotation invariance:
           :    0.0000105281   -0.0000282308    0.0000296485

Norm of the Cartesian gradient     ...    0.3540469384
RMS gradient                       ...    0.0590078231
MAX gradient                       ...    0.1590514793

-------
TIMINGS
-------

Total SCF gradient time     ....        1.279 sec

Densities                   ....       0.002 sec  (  0.1%)
One electron gradient       ....       0.052 sec  (  4.0%)
RI-J Coulomb gradient       ....       0.378 sec  ( 29.5%)
XC gradient                 ....       0.786 sec  ( 61.5%)

Maximum memory used throughout the entire SCFGRAD-calculation: 29.5 MB
------------------------------------------------------------------------------
                         ORCA GEOMETRY RELAXATION STEP
------------------------------------------------------------------------------

Reading the OPT-File                    .... done
Getting information on internals        .... done
Copying old internal coords+grads       .... done
Making the new internal coordinates     .... (2022 redundants) done
Validating the new internal coordinates .... (2022 redundants) done
Calculating the B-matrix                .... done
Calculating the G,G- and P matrices     .... done
Transforming gradient to internals      .... done
Projecting the internal gradient        .... done
Number of atoms                         ....  12
Number of internal coordinates          .... 218
Current Energy                          ....  -296.939888995 Eh
Current gradient norm                   ....     0.354046938 Eh/bohr
Maximum allowed component of the step   ....  0.300
Current trust radius                    ....  0.300
Evaluating the initial hessian          ....  (Almloef) done
Projecting the Hessian                  .... done
Forming the augmented Hessian           .... done
Diagonalizing the augmented Hessian     .... done
Last element of RFO vector              ....  0.750623720
Lowest eigenvalues of augmented Hessian:
 -0.174856613  0.010180441  0.010575742  0.010752830  0.010996656
Length of the computed step             ....  0.880241198
Warning: the length of the step is outside the trust region - taking restricted step instead
The input lambda is                     ....     0.009173
   iter:   5  x=   -0.087297  g=  117.551810 f(x)=     4.734336
   iter:  10  x=   -0.571476  g=    0.533133 f(x)=     0.051478
   iter:  15  x=   -0.610004  g=    0.269051 f(x)=    -0.000000
The output lambda is                    ....    -0.610004 (15 iterations)
The final length of the internal step   ....  0.300000000
Converting the step to Cartesian space:
 Initial RMS(Int)=    0.0203185638
Transforming coordinates:
 Iter   0:  RMS(Cart)=    0.0444952289 RMS(Int)=    0.0203069982
done
Storing new coordinates                 .... done

                                .--------------------.
          ----------------------|Geometry convergence|-------------------------
          Item                value                   Tolerance       Converged
          ---------------------------------------------------------------------
          RMS gradient        0.0137959576            0.0001000000      NO
          MAX gradient        0.0721654365            0.0003000000      NO
          RMS step            0.0203185638            0.0020000000      NO
          MAX step            0.1051368911            0.0040000000      NO
          -------------------------------------------------------------------------
          ........................................................
          Max(Bonds)      0.0556      Max(Angles)    2.11
          Max(Dihed)        0.51      Max(Improp)    0.00
          ---------------------------------------------------------------------

The optimization has not yet converged - more geometry cycles are needed


    ---------------------------------------------------------------------------
                         Redundant Internal Coordinates
                            (Angstroem and degrees)

        Definition                    Value    dE/dq     Step     New-Value
    ----------------------------------------------------------------------------
     1. B(B   1,B   0)                1.6738 -0.014953  0.0072    1.6810   
     2. B(B   2,B   0)                1.4807 -0.032018  0.0167    1.4974   
     3. B(B   2,B   1)                1.4970 -0.020464  0.0103    1.5073   
     4. B(B   3,B   0)                1.9829  0.072165 -0.0530    1.9299   
     5. B(B   4,B   3)                2.2711  0.039538 -0.0328    2.2383   
     6. B(B   4,B   1)                2.7806  0.028286 -0.0247    2.7559   
     7. B(B   4,B   0)                2.4581  0.029625 -0.0250    2.4331   
[...]

  6 B s       :     3.365144  s :     3.365144
      pz      :     0.439061  p :     1.861046
      px      :     0.771409
      py      :     0.650577
      dz2     :     0.003897  d :     0.044717
      dxz     :     0.003671
      dyz     :     0.009088
      dx2y2   :     0.014917
      dxy     :     0.013145

  7 B s       :     3.365182  s :     3.365182
      pz      :     0.437467  p :     1.860164
      px      :     0.587685
      py      :     0.835012
      dz2     :     0.003826  d :     0.044723
      dxz     :     0.009827
      dyz     :     0.002884
      dx2y2   :     0.014343
      dxy     :     0.013843

  8 B s       :     3.193778  s :     3.193778
      pz      :     0.438170  p :     1.573435
      px      :     0.566046
      py      :     0.569219
      dz2     :     0.003366  d :     0.047752
      dxz     :     0.006778
      dyz     :     0.006792
      dx2y2   :     0.015382
      dxy     :     0.015434

  9 B s       :     3.364923  s :     3.364923
      pz      :     0.437236  p :     1.859848
      px      :     0.791257
      py      :     0.631355
      dz2     :     0.003838  d :     0.044714
      dxz     :     0.005865
      dyz     :     0.006840
      dx2y2   :     0.013611
      dxy     :     0.014560

 10 B s       :     3.364163  s :     3.364163
      pz      :     0.438043  p :     1.860088
      px      :     0.828259
      py      :     0.593787
      dz2     :     0.003876  d :     0.044698
      dxz     :     0.004594
      dyz     :     0.008131
      dx2y2   :     0.013177
      dxy     :     0.014919

 11 B s       :     3.194166  s :     3.194166
      pz      :     0.439399  p :     1.572066
      px      :     0.564765
      py      :     0.567902
      dz2     :     0.003398  d :     0.047715
      dxz     :     0.006808
      dyz     :     0.006843
      dx2y2   :     0.015192
      dxy     :     0.015474



                     *******************************
                     * LOEWDIN POPULATION ANALYSIS *
                     *******************************

----------------------
LOEWDIN ATOMIC CHARGES
----------------------
   0 B :   -0.058342
   1 B :   -0.058591
   2 B :   -0.058240
   3 B :   -0.000656
   4 B :   -0.000606
   5 B :    0.059663
   6 B :   -0.000690
   7 B :   -0.000154
   8 B :    0.058799
   9 B :   -0.000180
  10 B :   -0.000442
  11 B :    0.059439

-------------------------------
LOEWDIN REDUCED ORBITAL CHARGES
-------------------------------
  0 B s       :     2.558632  s :     2.558632
      pz      :     0.654651  p :     2.277767
      px      :     0.830989
      py      :     0.792127
      dz2     :     0.021165  d :     0.221943
      dxz     :     0.025794
      dyz     :     0.025575
      dx2y2   :     0.073422
      dxy     :     0.075988

  1 B s       :     2.558525  s :     2.558525
      pz      :     0.654049  p :     2.277951
      px      :     0.822006
      py      :     0.801896
      dz2     :     0.021095  d :     0.222115
      dxz     :     0.025575
      dyz     :     0.025391
      dx2y2   :     0.067532
      dxy     :     0.082522

  2 B s       :     2.558685  s :     2.558685
      pz      :     0.653898  p :     2.277618
      px      :     0.782786
      py      :     0.840935
      dz2     :     0.021064  d :     0.221936
      dxz     :     0.025250
      dyz     :     0.025616
      dx2y2   :     0.083794
      dxy     :     0.066211

  3 B s       :     2.788009  s :     2.788009
      pz      :     0.475447  p :     2.104502
      px      :     0.659293
      py      :     0.969762
      dz2     :     0.011289  d :     0.108145
      dxz     :     0.019531
      dyz     :     0.007925
      dx2y2   :     0.032807
      dxy     :     0.036593

  4 B s       :     2.787768  s :     2.787768
      pz      :     0.476255  p :     2.104707
      px      :     0.831134
      py      :     0.797318
      dz2     :     0.011308  d :     0.108131
      dxz     :     0.010446
      dyz     :     0.017027
      dx2y2   :     0.037123
      dxy     :     0.032227

  5 B s       :     2.735818  s :     2.735818
      pz      :     0.463328  p :     2.074883
      px      :     0.951807
      py      :     0.659749
      dz2     :     0.011418  d :     0.129636
      dxz     :     0.016926
      dyz     :     0.012993
      dx2y2   :     0.041484
      dxy     :     0.046815

  6 B s       :     2.787898  s :     2.787898
      pz      :     0.474391  p :     2.104677
      px      :     0.890172
      py      :     0.740114
      dz2     :     0.011344  d :     0.108115
      dxz     :     0.008509
      dyz     :     0.018716
      dx2y2   :     0.037739
      dxy     :     0.031806

  7 B s       :     2.788128  s :     2.788128
      pz      :     0.472542  p :     2.103898
      px      :     0.675162
      py      :     0.956194
      dz2     :     0.011259  d :     0.108128
      dxz     :     0.019839
      dyz     :     0.007196
      dx2y2   :     0.035208
      dxy     :     0.034626

  8 B s       :     2.735321  s :     2.735321
      pz      :     0.461241  p :     2.076099
      px      :     0.710698
      py      :     0.904160
      dz2     :     0.011460  d :     0.129780
      dxz     :     0.013346
      dyz     :     0.015976
      dx2y2   :     0.044881
      dxy     :     0.044117

  9 B s       :     2.788178  s :     2.788178
      pz      :     0.472489  p :     2.103881
      px      :     0.896583
      py      :     0.734809
      dz2     :     0.011271  d :     0.108122
      dxz     :     0.012783
      dyz     :     0.014262
      dx2y2   :     0.033811
      dxy     :     0.035994

 10 B s       :     2.787989  s :     2.787989
      pz      :     0.473441  p :     2.104362
      px      :     0.939881
      py      :     0.691041
      dz2     :     0.011319  d :     0.108091
      dxz     :     0.010466
      dyz     :     0.016678
      dx2y2   :     0.032058
      dxy     :     0.037570

 11 B s       :     2.735727  s :     2.735727
      pz      :     0.462696  p :     2.075167
      px      :     0.757615
      py      :     0.854856
      dz2     :     0.011423  d :     0.129667
      dxz     :     0.014246
      dyz     :     0.015503
      dx2y2   :     0.046541
      dxy     :     0.041953



                      *****************************
                      * MAYER POPULATION ANALYSIS *
                      *****************************

  NA   - Mulliken gross atomic population
  ZA   - Total nuclear charge
  QA   - Mulliken gross atomic charge
  VA   - Mayer's total valence
  BVA  - Mayer's bonded valence
  FA   - Mayer's free valence

  ATOM       NA         ZA         QA         VA         BVA        FA
  0 B      4.6455     5.0000     0.3545     2.8161     2.8161     0.0000
  1 B      4.6438     5.0000     0.3562     2.8146     2.8146     0.0000
  2 B      4.6482     5.0000     0.3518     2.8214     2.8214     0.0000
  3 B      5.2704     5.0000    -0.2704     3.2795     3.2795    -0.0000
  4 B      5.2704     5.0000    -0.2704     3.2786     3.2786    -0.0000
  5 B      4.8133     5.0000     0.1867     3.3143     3.3143    -0.0000
  6 B      5.2709     5.0000    -0.2709     3.2786     3.2786    -0.0000
  7 B      5.2701     5.0000    -0.2701     3.2784     3.2784    -0.0000
  8 B      4.8150     5.0000     0.1850     3.3165     3.3165     0.0000
  9 B      5.2695     5.0000    -0.2695     3.2801     3.2801    -0.0000
 10 B      5.2689     5.0000    -0.2689     3.2800     3.2800    -0.0000
 11 B      4.8139     5.0000     0.1861     3.3151     3.3151     0.0000

  Mayer bond orders larger than 0.100000
B(  0-B ,  1-B ) :   0.4763 B(  0-B ,  2-B ) :   0.4789 B(  0-B ,  3-B ) :   0.5068 
B(  0-B ,  4-B ) :   0.5068 B(  0-B ,  5-B ) :   0.4394 B(  0-B , 11-B ) :   0.4395 
B(  1-B ,  2-B ) :   0.4781 B(  1-B ,  5-B ) :   0.4390 B(  1-B ,  6-B ) :   0.5071 
B(  1-B ,  7-B ) :   0.5058 B(  1-B ,  8-B ) :   0.4395 B(  2-B ,  8-B ) :   0.4404 
B(  2-B ,  9-B ) :   0.5081 B(  2-B , 10-B ) :   0.5084 B(  2-B , 11-B ) :   0.4396 
B(  3-B ,  4-B ) :   1.4833 B(  3-B , 11-B ) :   1.0804 B(  4-B ,  5-B ) :   1.0802 
B(  5-B ,  6-B ) :   1.0802 B(  6-B ,  7-B ) :   1.4829 B(  7-B ,  8-B ) :   1.0809 
B(  8-B ,  9-B ) :   1.0806 B(  9-B , 10-B ) :   1.4818 B( 10-B , 11-B ) :   1.0801 


-------
TIMINGS
-------

Total SCF time: 0 days 0 hours 0 min 3 sec 

Total time                  ....       3.453 sec
Sum of individual times     ....       3.083 sec  ( 89.3%)

SCF preparation             ....       0.568 sec  ( 16.4%)
Fock matrix formation       ....       1.486 sec  ( 43.0%)
  Startup                   ....       0.010 sec  (  0.7% of F)
  Split-RI-J                ....       0.575 sec  ( 38.7% of F)
  XC integration            ....       1.040 sec  ( 70.0% of F)
    XC Preparation          ....       0.000 sec  (  0.0% of XC)
    Basis function eval.    ....       0.247 sec  ( 23.8% of XC)
    Density eval.           ....       0.173 sec  ( 16.7% of XC)
    XC-Functional eval.     ....       0.029 sec  (  2.8% of XC)
    XC-Potential eval.      ....       0.220 sec  ( 21.1% of XC)
Diagonalization             ....       0.000 sec  (  0.0%)
Density matrix formation    ....       0.215 sec  (  6.2%)
Total Energy calculation    ....       0.098 sec  (  2.8%)
Population analysis         ....       0.163 sec  (  4.7%)
Orbital Transformation      ....       0.022 sec  (  0.6%)
Orbital Orthonormalization  ....       0.000 sec  (  0.0%)
DIIS solution               ....       0.104 sec  (  3.0%)
SOSCF solution              ....       0.428 sec  ( 12.4%)
Finished LeanSCF after   3.7 sec

Maximum memory used throughout the entire LEANSCF-calculation: 12.4 MB


-------------------------------------------------------------------------------
                          DFT DISPERSION CORRECTION                            
                                                                               
                              DFTD3 V3.1  Rev 1                                
                          USING Becke-Johnson damping                          
-------------------------------------------------------------------------------
The BP86 functional is recognized
Active option DFTDOPT                   ...         4   

molecular C6(AA) [au] = 4351.374834 


            DFT-D V3
 parameters
 s6 scaling factor         :     1.0000 
 a1 scaling factor         :     0.3946 
 s8 scaling factor         :     3.2822 
 a2 scaling factor         :     4.8516 
 ad hoc parameters k1-k3   :    16.0000     1.3333    -4.0000 

 Edisp/kcal,au: -20.736959709617  -0.033046445280 
 E6   /kcal   :  -5.976904824 
 E8   /kcal   : -14.760054886 
 % E8         :  71.177525984 

-------------------------   ----------------
Dispersion correction           -0.033046445
-------------------------   ----------------


-------------------------   --------------------
FINAL SINGLE POINT ENERGY      -297.750646301105
-------------------------   --------------------

                                *** OPTIMIZATION RUN DONE ***



           ************************************************************
           *        Program running with 8 parallel MPI-processes     *
           *              working on a common directory               *
           ************************************************************

------------------------------------------------------------------------------
                              ORCA PROPERTY CALCULATIONS
------------------------------------------------------------------------------

GBWName                                 ... quasi_planar_nn1.70_perturb0.gbw
Number of atoms                         ...     12
Number of basis functions               ...    168
Max core memory                         ...   2500 MB

Electric properties:
Dipole moment                           ... YES
Quadrupole moment                       ...  NO
Static polarizability (Dipole/Dipole)   ...  NO
Static polarizability (Dipole/Quad.)    ...  NO
Static polarizability (Quad./Quad.)     ...  NO
Static polarizability (Velocity)        ...  NO
Static hyperpolarizability              ...  NO

Atomic electric properties:
Dipole moment                           ...  NO
Quadrupole moment                       ...  NO
Static polarizability                   ...  NO

Choice of electric origin               ... Center of mass
Position of electric origin             ...    -0.035362    -0.025699    -0.031341

General magnetic properties:
Magnetizability                         ...  NO

EPR properties:
g-Tensor (aka g-matrix)                 ...  NO
Zero-Field splitting spin-orbit         ...  NO
Zero-field splitting spin-spin          ...  NO
Hyperfine couplings                     ...  NO (   0 nuclei)
Quadrupole couplings                    ...  NO (   0 nuclei)
Contact density                         ...  NO (   0 nuclei)

NMR properties:
Chemical shifts                         ...  NO (   0 nuclei)
Spin-rotation constants                 ...  NO (   0 nuclei)
Spin-spin couplings                     ...  NO (   0 nuclei,    0 pairs)

Choice of magnetic origin               ... GIAO
Position of magnetic origin             ...     0.000000     0.000000     0.000000

Properties with geometric perturbations:
SCF Hessian                             ...  NO
IR spectrum                             ...  NO
VCD spectrum                            ...  NO
X-ray spectroscopy properties:
SCF XES/XAS/RIXS spectra                ...  NO

SCF SOC stabilization energy            ...  NO
Diagonal Born-Oppenheimer correction    ...  NO

-------------
DIPOLE MOMENT
-------------

Method             : SCF
Type of density    : Electron Density
Multiplicity       :   1
Irrep              :   0
Energy             :  -297.7175998558248580 Eh
Basis              : AO
                                X                 Y                 Z
Electronic contribution:      0.005832724       0.003723254       0.776621603
Nuclear contribution   :     -0.000000000       0.000000000       0.000000000
                        -----------------------------------------
Total Dipole Moment    :      0.005832724       0.003723254       0.776621603
                        -----------------------------------------
Magnitude (a.u.)       :      0.776652431
Magnitude (Debye)      :      1.974093595



--------------------
Rotational spectrum 
--------------------
 
Rotational constants in cm-1:             0.058827             0.058796             0.030097 
Rotational constants in MHz :          1763.581841          1762.658028           902.295454 

Dipole components along the rotational axes: 
x,y,z [a.u.] :     0.000813    -0.000208     0.776652 
x,y,z [Debye]:     0.002067    -0.000530     1.974092 

 

Dipole moment calculation done in   0.0 sec 

Maximum memory used throughout the entire PROP-calculation: 10.1 MB

--------------------------------
SUGGESTED CITATIONS FOR THIS RUN
--------------------------------

Below you find a list of papers that are relevant to this ORCA run
We neither can nor want to force you to cite these papers, but we appreciate if you do
You receive ORCA, which is the product of decades of hard work by many enthusiastic individuals, for free
The only thing we kindly ask in return is that you cite our papers,
We deeply appreciate it, if you show your appreciation for ORCA by not just citing the generic ORCA reference.

Please note that relegating all ORCA citations to the supporting information does *not* help us.
SI sections are not indexed - citations you put there will not count into any citation statistics
But we need these citations in order to attract the funding resources that allow us to do what we are doing

Therefore, if you are a happy ORCA user, please consider citing a few of the papers listed below in the main body of your paper

In addition to the list printed below, the program has created the file quasi_planar_nn1.70_perturb0.bibtex that contains the list in bibtex format
You can import this file easily into all common literature databanks and citation aid programs

It goes without saying that in many instances, there are alternative algorithms to achieve similar
results as the ones you have gotten from ORCA. It is, of course, also the case that in some instances
ORCA just re-implements algorithms worked out by others. We are fully aware of that and we are also
fully appreciative of our colleagues work. Hence this citation list should not be read as indicating
that the listed papers, which are focused on our own work, are the only ones worth citing. It simply
meant to make it easier for users to cite ORCA specific papers. It is not a substitute for doing your
own literature research and citing the relevant literature in a scientifically appropriate manner.

List of essential papers. We consider these as the minimum necessary citations

  1. Neese, F.
     Software update: the ORCA program system, version 6.0
     WIRES Comput. Molec. Sci. 2025 15(1), e70019
     doi.org/10.1002/wcms.70019

List of papers to cite with high priority. The work reported in these papers was absolutely
necessary for this run to complete.
Our perspective: the developers of density functionals and basis sets usually get cited in chemistry papers
Good! But without the algorithms to do something with them, the functionals or basis sets would not do anything.
Hence, in our opinion, the algorithm design and method developments papers are equally worthy of getting cited

  1. Neese, F.
     An improvement of the resolution of the identity approximation for the formation of the Coulomb matrix
     J. Comp. Chem. 2003 24(14), 1740-1747
     doi.org/10.1002/jcc.10318
  2. Grimme, S.; Antony, J.; Ehrlich, S.; Krieg, H.
     A consistent and accurate ab initio parametrization of density functional dispersion correction (DFT-D) for the 94 elements H-Pu
     J. Chem. Phys. 2010 132 , 154104
     doi.org/10.1063/1.3382344
  3. Grimme, S.; Ehrlich, S.; Goerigk, L.
     Effect of the damping function in dispersion corrected density functional theory
     J. Comput. Chem. 2011 32(7), 1456-1465
     doi.org/10.1002/jcc.21759
  4. Neese, F.
     The SHARK Integral Generation and Digestion System
     J. Comp. Chem. 2022 44(3), 381
     doi.org/10.1002/jcc.26942

List of suggested additional citations. These are papers that are important in the 'surrounding' of 
of this run, or papers that preceded the highly important papers. If you like your results we are grateful for a citation.

  1. Neese, F.
     The ORCA program system
     WIRES Comput. Molec. Sci. 2012 2(1), 73-78
     doi.org/10.1002/wcms.81
  2. Neese, F.
     Software update: the ORCA program system, version 4.0
     WIRES Comput. Molec. Sci. 2018 8(1), 1-6
     doi.org/10.1002/wcms.1327
  3. Neese, F.; Wennmohs, F.; Becker, U.; Riplinger, C.
     The ORCA quantum chemistry program package
     J. Chem. Phys. 2020 152(22), 224108
     doi.org/10.1063/5.0004608
  4. Neese, F.
     Software update: The ORCA program system—Version 5.0
     WIRES Comput. Molec. Sci. 2022 12(1), e1606
     doi.org/10.1002/wcms.1606

List of optional additional citations

  1. Neese, F.
     Approximate second-order SCF convergence for spin unrestricted wavefunctions
     Chem. Phys. Lett. 2000 325(1-3), 93-98
     doi.org/10.1016/s0009-2614(00)00662-x

Timings for individual modules:

Sum of individual times          ...      711.226 sec (=  11.854 min)
Startup calculation              ...       99.898 sec (=   1.665 min)  14.0 %
SCF iterations                   ...      475.068 sec (=   7.918 min)  66.8 %
Property calculations            ...        0.786 sec (=   0.013 min)   0.1 %
SCF Gradient evaluation          ...      134.509 sec (=   2.242 min)  18.9 %
Geometry relaxation              ...        0.964 sec (=   0.016 min)   0.1 %
                             ****ORCA TERMINATED NORMALLY****
TOTAL RUN TIME: 0 days 0 hours 12 minutes 38 seconds 352 msec
