
                                 *****************
                                 * O   R   C   A *
                                 *****************

                                            #,                                       
                                            ###                                      
                                            ####                                     
                                            #####                                    
                                            ######                                   
                                           ########,                                 
                                     ,,################,,,,,                         
                               ,,#################################,,                 
                          ,,##########################################,,             
                       ,#########################################, ''#####,          
                    ,#############################################,,   '####,        
                  ,##################################################,,,,####,       
                ,###########''''           ''''###############################       
              ,#####''   ,,,,##########,,,,          '''####'''          '####       
            ,##' ,,,,###########################,,,                        '##       
           ' ,,###''''                  '''############,,,                           
         ,,##''                                '''############,,,,        ,,,,,,###''
      ,#''                                            '''#######################'''  
     '                                                          ''''####''''         
             ,#######,   #######,   ,#######,      ##                                
            ,#'     '#,  ##    ##  ,#'     '#,    #''#        ,####,    ,#,          
            ##       ##  ##   ,#'  ##            #'  '#       #'       ,# #          
            ##       ##  #######   ##           ,######,      #####,      #          
            '#,     ,#'  ##    ##  '#,     ,#' ,#      #,     #,   #      #          
             '#######'   ##     ##  '#######'  #'      '#     '####' #    #          



                #########################################################
                #                        -***-                          #
                #          Department of theory and spectroscopy        #
                #                                                       #
                #                      Frank Neese                      #
                #                                                       #
                #     Directorship, Architecture, Infrastructure        #
                #                    SHARK, DRIVERS                     #
                #        Core code/Algorithms in most modules           #
                #                                                       #
                #        Max Planck Institute fuer Kohlenforschung      #
                #                Kaiser Wilhelm Platz 1                 #
                #                 D-45470 Muelheim/Ruhr                 #
                #                      Germany                          #
                #                                                       #
                #                  All rights reserved                  #
                #                        -***-                          #
                #########################################################


                         Program Version 6.1.1  -  RELEASE   -
                                (GIT: $487d211c$)
                          ($2025-11-21 10:33:24 +0100$)
                                                                         
                                  - NO-DMRG VERSION -                    
                                                                         


 With contributions from (in alphabetic order):
[Max-Planck-Institut fuer Kohlenforschung]                               
  Daniel Aravena         : Magnetic Suceptibility                        
  Michael Atanasov       : Ab Initio Ligand Field Theory (pilot matlab implementation)
  Alexander A. Auer      : GIAO ZORA, VPT2 properties, NMR spectrum      
  Ute Becker             : All parallelization in ORCA, NUMFREQ, NUMCALC 
  Giovanni Bistoni       : ED, misc. LED, open-shell LED, HFLD           
  Dmytro Bykov           : pre 5.0 version of the SCF Hessian            
  Marcos Casanova-Páez   : Triplet and SCS-CIS(D). UHF-(DLPNO)-IP/EA/STEOM-CCSD. UHF-CVS-IP/STEOM-CCSD   
  Vijay G. Chilkuri      : MRCI spin determinant printing, contributions to CSF-ICE 
  Pauline Colinet        : FMM embedding                                 
  Dipayan Datta          : RHF DLPNO-CCSD density                        
  Achintya Kumar Dutta   : EOM-CC, STEOM-CC                              
  Nicolas Foglia         : Exact transition moments, OPA infrastructure, MCD improvements    
  Dmitry Ganyushin       : Spin-Orbit,Spin-Spin,Magnetic field MRCI      
  Miquel Garcia-Rates    : C-PCM and meta-GGA Hessian, CCSD/C-PCM, Gaussian charge scheme 
  Tiago L. C. Gouveia    : GS-ROHF, GS-ROCIS                             
  Yang Guo               : DLPNO-NEVPT2, F12-NEVPT2, CIM, IAO-localization        
  Andreas Hansen         : Spin unrestricted coupled pair/coupled cluster methods 
  Ingolf Harden          : AUTO-CI MPn and infrastructure                
  Benjamin Helmich-Paris : MC-RPA, TRAH-(SCF,CASSCF), AVAS, COSX integrals, SCF dyn. polar., MC-PDFT, srDFT 
  Lee Huntington         : MR-EOM, pCC                                   
  Robert Izsak           : Overlap fitted RIJCOSX, COSX-SCS-MP3, EOM     
  Riya Kayal             : Wick's Theorem for AUTO-CI, AUTO-CI UHF-CCSDT 
  Emily Kempfer          : AUTO-CI RHF CISDT and CCSDT, approximate NEVPT4
  Christian Kollmar      : KDIIS, OOCD, Brueckner-CCSD(T), CCSD density, CASPT2, CASPT2-K, improved NEVPT2 
  Axel Koslowski         : Symmetry handling                             
  Simone Kossmann        : meta-GGA functionals, TD-DFT gradient, OOMP2, (MP2 Hessian; deprecated post 5.0) 
  Lucas Lang             : DCDCAS, Hyperfine gauge corrections, ICE-SOC+SSC
  Marvin Lechner         : AUTO-CI (C++ implementation), FIC-MRCC        
  Spencer Leger          : CASSCF response                               
  Dagmar Lenk            : GEPOL surface, SMD, ORCA-2-JSON               
  Dimitrios Liakos       : Extrapolation schemes; Compound Job, Property file
  Dimitrios Manganas     : Further ROCIS development; embedding schemes. LFT, Crystal Embedding 
  Dimitrios Pantazis     : SARC Basis sets                               
  Anastasios Papadopoulos: AUTO-CI, single reference methods and gradients 
  Taras Petrenko         : pre 6.0 DFT Hessian and TD-DFT gradient,  ECA, NRVS 
  Petra Pikulova         : Analytic Raman intensities                    
  Peter Pinski           : DLPNO-MP2, DLPNO-MP2 Gradient                 
  Shashank Vittal Rao    : ES-AILFT, MagRelax                            
  Christoph Reimann      : Effective Core Potentials                     
  Marius Retegan         : Local ZFS, SOC                                
  Christoph Riplinger    : Optimizer, TS searches, QM/MM, DLPNO-CCSD(T), (RO)-DLPNO pert. Triples 
  Michael Roemelt        : Original ROCIS implementation, recursive CI coupling coefficients
  Masaaki Saitow         : Open-shell DLPNO-CCSD energy and density      
  Barbara Sandhoefer     : DKH picture change effects                    
  Yorick L. A. Schmerwitz: GMF and freeze-and-release deltaSCF, NEB S-IDPP initial path                    
  Kantharuban Sivalingam : CASSCF convergence/infrastructure, NEVPT2, NEVPT3, NEVPT4(SD), FIC-MRCI and CEPA variants
  Bernardo de Souza      : ESD, SOC TD-DFT                               
  Georgi L. Stoychev     : AutoAux, RI-MP2 NMR, DLPNO-MP2 response, X2C  
  Van Anh Tran           : RI-MP2 g-tensors                              
  Willem Van den Heuvel  : Paramagnetic NMR                              
  Zikuan Wang            : NOTCH, Electric field optimization            
  Frank Wennmohs         : Technical directorship and infrastructure     
  Hang Xu                : AUTO-CI-Response properties                   
                                                                         
[FACCTs GmbH]                                                            
  Markus Bursch, Nicolas Foglia, Miquel Garcia-Rates, Ingolf Harden, Hagen Neugebauer, Anastasios Papadopoulos, 
  Christoph Riplinger, Bernardo de Souza, Georgi L. Stoychev                                                    
                                                                 
  APM, various basis sets, CI-OPT, improved COSX, DLPNO-Multilevel,           
  DOCKER, DRACO, updates on ESD, Fragmentator, GOAT, IRC, LR-CPCM, L-BFGS, MBIS, meta-GGA TD-DFT gradient, ML-optimized integration grids, 
  MM, NACMEs, nearIR, NEB, NEB-TS, NL-DFT gradient (VV10), 2- and 3-layer-ONIOM, interface openCOSMO-RS, QMMM,   
  Crystal-QMMM, RESP, rigid body optimization, SF, symmetry and pop. for TD-DFT, various functionals, SOLVATOR                                   
                                                                         
[Other institutions]                                                     
  V. Asgeirsson          : NEB                                           
  Christoph Bannwarth    : sTDA-DFT, sTD-DFT, PBEh-3c, B97-3c, D3        
  Giovanni Bistoni       : ETS/NOCV, ADLD/ADEX, COVALED                  
  Martin Brehm           : Molecular dynamics                            
  Ronald Cardenas        : ETS/NOCV                                      
  Martina Colucci        : COVALED                                       
  Sebastian Ehlert       : rSCAN, r2SCAN, r2SCAN-3c, D4, dhf basis sets  
  Marvin Friede          : D4 for Fr, Ra, Ac-Lr                          
  Lars Goerigk           : TD-DFT with DH, B97 family of functionals     
  Stefan Grimme          : VdW corrections, initial TS optimization, DFT functionals, gCP, sTDA/sTD-DF 
  Waldemar Hujo          : DFT-NL                                        
  H. Jonsson             : NEB                                           
  Holger Kruse           : gCP                                           
  Marcel Mueller         : wB97X-3c, vDZP basis set                      
  Hagen Neugebauer       : wr2SCAN, Native XTB                           
  Gianluca Regni         : ADLD/ADEX                                     
  Tobias Risthaus        : pre 6.0 range-separated hybrid DFT and stability analysis
  Lukas Wittmann         : regularized MP2, r2SCAN double-hybrids, wr2SCAN        
                                                                         
We gratefully acknowledge several colleagues who have allowed us to      
interface, adapt or use parts of their codes:                            
  Ed Valeev, F. Pavosevic, A. Kumar             : LibInt (2-el integral package), F12 methods 
  Garnet Chan, S. Sharma, J. Yang, R. Olivares  : DMRG                   
  Ulf Ekstrom                                   : XCFun DFT Library      
  Mihaly Kallay                                 : mrcc  (arbitrary order and MRCC methods)
  Frank Weinhold                                : gennbo (NPA and NBO analysis)           
  Simon Mueller                                 : openCOSMO-RS                            
  Christopher J. Cramer and Donald G. Truhlar   : smd solvation model                     
  S Lehtola, MJT Oliveira, MAL Marques          : LibXC Library                           
  Liviu Ungur et al                             : ANISO software                          


 Your calculation uses the libint2 library for the computation of 2-el integrals
 For citations please refer to: http://libint.valeyev.net

 Your ORCA version has been built with support for libXC version: 7.0.0
 For citations please refer to: https://libxc.gitlab.io

 This ORCA versions uses:
   CBLAS   interface :  Fast vector & matrix operations
   LAPACKE interface :  Fast linear algebra routines
   SCALAPACK package :  Parallel linear algebra routines
   Shared memory     :  Shared parallel matrices
   BLAS/LAPACK       :  OpenBLAS 0.3.29  USE64BITINT DYNAMIC_ARCH NO_AFFINITY Zen SINGLE_THREADED
        Core in use  :  Zen
   Copyright (c) 2011-2014, The OpenBLAS Project


  ***********************************
  * Starting time: Thu Apr 23 17:32:47 2026
  * Host name:     vmi3233575
  * Process ID:    1370186
  * Working dir.:  /root/b12_scan/jobs/icosahedron_nn1.70_perturb1
  ***********************************

NOTE: MaxCore=2500 MB was set to SCF,MP2,MDCI,CIPSI,MRCI,RASCI and CIS
      => If you want to overwrite this, your respective input block should be placed after the MaxCore statement
Your calculation utilizes the atom-pairwise dispersion correction
with the Becke-Johnson damping scheme (D3BJ)


================================================================================

----- Orbital basis set information -----
Your calculation utilizes the basis: def2-SVP
   F. Weigend and R. Ahlrichs, Phys. Chem. Chem. Phys. 7, 3297 (2005).

----- AuxJ basis set information -----
Your calculation utilizes the auxiliary basis: def2/J
   H-Rn: F. Weigend, Phys. Chem. Chem. Phys. 8, 1057 (2006).
   Fr-Lr: K. Eichkorn, F. Weigend, O. Treutler, R. Ahlrichs; Theor. Chem. Acc. 97, 119 (1997).

================================================================================
                                        WARNINGS
                       Please study these warnings very carefully!
================================================================================


WARNING: Geometry Optimization
  ===> : Switching off AutoStart
         For restart on a previous wavefunction, please use MOREAD

================================================================================
                                       INPUT FILE
================================================================================
NAME = icosahedron_nn1.70_perturb1.inp
|  1> ! BP86 def2-SVP def2/J RI Opt TightSCF D3BJ
|  2> ! SlowConv
|  3> 
|  4> %pal nprocs 8 end
|  5> %maxcore 2500
|  6> 
|  7> %geom
|  8>   MaxIter 300
|  9> end
| 10> 
| 11> * xyz 0 1
| 12> B      0.05183763     -0.72675728     -1.32576333
| 13> B     -1.04547358     -1.23952551      0.06695619
| 14> B     -1.45587188      0.08716772     -0.79531414
| 15> B      0.04411987     -0.84573666      1.45733584
| 16> B     -0.96046811      1.35089240     -0.07231790
| 17> B      1.46515582      0.00595832     -0.89386851
| 18> B     -0.11728627      0.81142116     -1.37410756
| 19> B      0.80865956     -1.18121932      0.15100865
| 20> B     -1.78200326     -0.28335199      0.82378419
| 21> B     -0.06332856      0.88204645      1.40792718
| 22> B      1.16767581      1.20852578     -0.05664075
| 23> B      1.68174463      0.09700545      0.94945951
| 24> *
| 25> 
| 26>                          ****END OF INPUT****
================================================================================

                       *****************************
                       * Geometry Optimization Run *
                       *****************************

Geometry optimization settings:
Update method            Update   .... BFGS
Choice of coordinates    CoordSys .... (2022) Redundant Internals
Initial Hessian          InHess   .... Almloef's Model
Max. no of cycles        MaxIter  .... 300

Convergence Tolerances:
Energy Change            TolE     ....  5.0000e-06 Eh
Max. Gradient            TolMAXG  ....  3.0000e-04 Eh/bohr
RMS Gradient             TolRMSG  ....  1.0000e-04 Eh/bohr
Max. Displacement        TolMAXD  ....  4.0000e-03 bohr
RMS Displacement         TolRMSD  ....  2.0000e-03 bohr
Strict Convergence                .... False

------------------------------------------------------------------------------
                        ORCA OPTIMIZATION COORDINATE SETUP
------------------------------------------------------------------------------

The optimization will be done in redundant internal coordinates (2022)
Making redundant internal coordinates   ...  (2022 redundants) done
Evaluating the initial hessian          ...  (Almloef) done
Evaluating the coordinates              ...  done
Calculating the B-matrix                .... done
Calculating the G-matrix                .... done
The number of degrees of freedom        ....  340

    -----------------------------------------------------------------
                    Redundant Internal Coordinates


    -----------------------------------------------------------------
         Definition                    Initial Value    Approx d2E/dq
    -----------------------------------------------------------------
      1. B(B   1,B   0)                  1.8457         0.157144   
      2. B(B   2,B   0)                  1.7936         0.190300   
      3. B(B   2,B   1)                  1.6346         0.341243   
      4. B(B   3,B   1)                  1.8098         0.179301   
      5. B(B   4,B   2)                  1.5379         0.486858   
      6. B(B   5,B   0)                  1.6495         0.323107   
      7. B(B   6,B   5)                  1.8394         0.160815   
      8. B(B   6,B   4)                  1.6421         0.331965   
      9. B(B   6,B   2)                  1.6283         0.349288   
     10. B(B   6,B   0)                  1.5482         0.468781   
     11. B(B   7,B   5)                  1.7124         0.256497   
     12. B(B   7,B   3)                  1.5503         0.465113   
     13. B(B   7,B   1)                  1.8570         0.150793   
     14. B(B   7,B   0)                  1.7205         0.248919   
     15. B(B   8,B   1)                  1.4246         0.738150   
     16. B(B   8,B   4)                  2.0368         0.077875   
     17. B(B   8,B   3)                  2.0131         0.084982   
     18. B(B   8,B   2)                  1.6927         0.275731   
     19. B(B   9,B   4)                  1.7933         0.190541   
     20. B(B   9,B   3)                  1.7318         0.238788   
     21. B(B  10,B   9)                  1.9409         0.110795   
     22. B(B  10,B   6)                  1.8827         0.137186   
     23. B(B  10,B   5)                  1.4952         0.569559   
     24. B(B  11,B  10)                  1.5849         0.409624   
     25. B(B  11,B   9)                  1.9677         0.100397   
     26. B(B  11,B   7)                  1.7417         0.230247   
     27. B(B  11,B   5)                  1.8582         0.150081   
     28. B(B  11,B   3)                  1.9567         0.104545   
     29. A(B   2,B   0,B   7)          103.6378         0.313167   
     30. A(B   2,B   0,B   6)           57.7615         0.347699   
     31. A(B   1,B   0,B   2)           53.3562         0.291003   
     32. A(B   1,B   0,B   5)          115.7996         0.316717   
     33. A(B   6,B   0,B   7)          109.7117         0.363910   
     34. A(B   5,B   0,B   6)           70.1503         0.380630   
     35. A(B   5,B   0,B   7)           61.0333         0.341702   
     36. A(B   1,B   0,B   6)          103.5700         0.336729   
     37. A(B   2,B   0,B   5)          116.1821         0.326801   
     38. A(B   1,B   0,B   7)           62.6429         0.303661   
     39. A(B   3,B   1,B   8)           75.9417         0.371859   
     40. A(B   3,B   1,B   7)           50.0038         0.286447   
     41. A(B   0,B   1,B   2)           61.6896         0.319549   
     42. A(B   7,B   1,B   8)          118.1055         0.360988   
     43. A(B   0,B   1,B   3)           99.2833         0.288299   
     44. A(B   2,B   1,B   8)           66.7775         0.416211   
     45. A(B   0,B   1,B   7)           55.3765         0.280640   
     46. A(B   0,B   1,B   8)          121.4508         0.363539   
     47. A(B   2,B   1,B   7)          104.4228         0.317406   
     48. A(B   2,B   1,B   3)          112.3216         0.326536   
     49. A(B   1,B   2,B   4)          109.7584         0.386796   
     50. A(B   1,B   2,B   8)           50.6647         0.350838   
     51. A(B   0,B   2,B   4)          103.9539         0.349924   
     52. A(B   0,B   2,B   6)           53.5358         0.331031   
     53. A(B   4,B   2,B   8)           78.0096         0.372769   
     54. A(B   4,B   2,B   6)           62.4062         0.388371   
     55. A(B   0,B   2,B   1)           64.9543         0.329758   
     56. A(B   6,B   2,B   8)          126.5672         0.352222   
     57. A(B   0,B   2,B   8)          110.2134         0.318418   
     58. A(B   1,B   2,B   6)          110.0054         0.365234   
     59. A(B   8,B   3,B  11)          122.8838         0.242481   
     60. A(B   1,B   3,B   9)           99.0796         0.308096   
     61. A(B   9,B   3,B  11)           64.1405         0.282914   
     62. A(B   7,B   3,B   8)          104.0410         0.304169   
     63. A(B   1,B   3,B   8)           43.3531         0.262413   
     64. A(B   8,B   3,B   9)           69.8806         0.274031   
     65. A(B   7,B   3,B   9)          102.8526         0.360852   
     66. A(B   1,B   3,B  11)          114.1615         0.270738   
     67. A(B   7,B   3,B  11)           58.1846         0.314499   
     68. A(B   1,B   3,B   7)           66.5771         0.343783   
     69. A(B   8,B   4,B   9)           68.2139         0.261374   
     70. A(B   6,B   4,B   9)          108.1554         0.328329   
     71. A(B   2,B   4,B   9)          109.5346         0.349999   
     72. A(B   6,B   4,B   8)          106.9946         0.284454   
     73. A(B   2,B   4,B   8)           54.3802         0.302150   
     74. A(B   2,B   4,B   6)           61.4956         0.384944   
     75. A(B  10,B   5,B  11)           55.1333         0.345211   
     76. A(B   6,B   5,B  11)          109.7430         0.281438   
     77. A(B   0,B   5,B  11)          112.4181         0.314359   
     78. A(B   0,B   5,B   6)           52.3415         0.317910   
     79. A(B   0,B   5,B   7)           61.5306         0.343423   
     80. A(B   6,B   5,B   7)           97.6473         0.306256   
     81. A(B   7,B   5,B  10)           98.0281         0.378254   
     82. A(B   6,B   5,B  10)           67.8424         0.349248   
     83. A(B   0,B   5,B  10)          109.4758         0.393770   
     84. A(B   7,B   5,B  11)           58.2208         0.302885   
     85. A(B   4,B   6,B   5)          112.2477         0.319316   
     86. A(B   2,B   6,B   5)          114.8125         0.321983   
     87. A(B   5,B   6,B  10)           47.3519         0.277564   
     88. A(B   0,B   6,B   5)           57.5081         0.338027   
     89. A(B   2,B   6,B   4)           56.0982         0.363515   
     90. A(B   0,B   6,B   4)          110.9606         0.382420   
     91. A(B   4,B   6,B  10)           74.1222         0.311179   
     92. A(B   2,B   6,B  10)          113.9633         0.313752   
     93. A(B   0,B   6,B  10)           96.4969         0.329229   
     94. A(B   0,B   6,B   2)           68.7026         0.385818   
     95. A(B   0,B   7,B   1)           61.9806         0.301666   
     96. A(B   5,B   7,B  11)           65.0863         0.324641   
     97. A(B   3,B   7,B  11)           72.6699         0.358621   
     98. A(B   1,B   7,B  11)          122.9771         0.297946   
     99. A(B   0,B   7,B  11)          114.8427         0.323047   
    100. A(B   3,B   7,B   5)          123.5867         0.365290   
    101. A(B   1,B   7,B   5)          112.1452         0.303115   
    102. A(B   0,B   7,B   5)           57.4361         0.328836   
    103. A(B   1,B   7,B   3)           63.4192         0.333990   
    104. A(B   0,B   7,B   3)          116.6893         0.363421   
    105. A(B   3,B   8,B   4)           89.8124         0.232584   
    106. A(B   2,B   8,B   4)           47.6101         0.276413   
    107. A(B   1,B   8,B   4)           95.5243         0.323204   
    108. A(B   2,B   8,B   3)          100.8019         0.280154   
    109. A(B   1,B   8,B   2)           62.5578         0.400798   
    110. A(B   1,B   8,B   3)           60.7051         0.327880   
    111. A(B  10,B   9,B  11)           47.8392         0.250491   
    112. A(B   4,B   9,B  11)          110.8343         0.271576   
    113. A(B   3,B   9,B  11)           63.4862         0.281145   
    114. A(B   4,B   9,B  10)           69.5401         0.275694   
    115. A(B   3,B   9,B  10)           98.6268         0.285479   
    116. A(B   3,B   9,B   4)          108.3866         0.311132   
    117. A(B   9,B  10,B  11)           66.9668         0.311005   
    118. A(B   6,B  10,B  11)          121.1757         0.322005   
    119. A(B   5,B  10,B  11)           74.1491         0.410584   
    120. A(B   6,B  10,B   9)           93.4215         0.262315   
    121. A(B   5,B  10,B   9)          114.4206         0.328202   
    122. A(B   5,B  10,B   6)           64.8057         0.340054   
    123. A(B   9,B  11,B  10)           65.1939         0.306109   
    124. A(B   7,B  11,B  10)           93.5021         0.350978   
    125. A(B   5,B  11,B  10)           50.7176         0.326792   
    126. A(B   3,B  11,B  10)          103.3680         0.308107   
    127. A(B   7,B  11,B   9)           87.4233         0.279568   
    128. A(B   5,B  11,B   9)           98.4709         0.261974   
    129. A(B   3,B  11,B   9)           52.3733         0.248383   
    130. A(B   5,B  11,B   7)           56.6929         0.297722   
    131. A(B   3,B  11,B   7)           49.1455         0.281322   
    132. A(B   3,B  11,B   5)           97.8350         0.263566   
    133. D(B   2,B   1,B   0,B   7)    135.7036         0.010000   
    134. D(B   2,B   1,B   0,B   6)     30.2903         0.010000   
    135. D(B   2,B   1,B   0,B   5)    104.5489         0.010000   
    136. D(B   3,B   1,B   0,B   2)   -110.4309         0.010000   
    137. D(B   3,B   1,B   0,B   7)     25.2726         0.010000   
    138. D(B   7,B   1,B   0,B   2)   -135.7036         0.010000   
    139. D(B   3,B   1,B   0,B   5)     -5.8820         0.010000   
    140. D(B   3,B   1,B   0,B   6)    -80.1406         0.010000   
    141. D(B   4,B   2,B   1,B   0)    -96.6020         0.010000   
    142. D(B   4,B   2,B   1,B   7)    -60.2039         0.010000   
    143. D(B   4,B   2,B   1,B   3)     -7.9251         0.010000   
    144. D(B   4,B   2,B   0,B   7)     65.9057         0.010000   
    145. D(B   4,B   2,B   0,B   5)      1.7572         0.010000   
    146. D(B   4,B   2,B   0,B   1)    105.5679         0.010000   
    147. D(B   6,B   2,B   1,B   0)    -29.7436         0.010000   
    148. D(B   4,B   2,B   1,B   8)     54.5653         0.010000   
    149. D(B   1,B   2,B   0,B   7)    -39.6622         0.010000   
    150. D(B   0,B   2,B   1,B   3)     88.6769         0.010000   
    151. D(B   0,B   2,B   1,B   8)    151.1673         0.010000   
    152. D(B   6,B   2,B   0,B   1)    144.5730         0.010000   
    153. D(B   1,B   2,B   0,B   5)   -103.8107         0.010000   
    154. D(B   1,B   2,B   0,B   6)   -144.5730         0.010000   
    155. D(B   4,B   2,B   0,B   6)    -39.0051         0.010000   
    156. D(B   0,B   2,B   1,B   7)     36.3981         0.010000   
    157. D(B   8,B   3,B   1,B   2)     57.1655         0.010000   
    158. D(B   8,B   3,B   1,B   0)    120.2705         0.010000   
    159. D(B   7,B   3,B   1,B   0)    -27.2961         0.010000   
    160. D(B   9,B   3,B   1,B   0)     72.8563         0.010000   
    161. D(B   7,B   3,B   1,B   2)    -90.4011         0.010000   
    162. D(B   7,B   3,B   1,B   8)   -147.5666         0.010000   
    163. D(B   8,B   3,B   1,B   7)    147.5666         0.010000   
    164. D(B   9,B   3,B   1,B   2)      9.7513         0.010000   
    165. D(B   9,B   4,B   2,B   0)    -65.7475         0.013665   
    166. D(B   8,B   4,B   2,B   6)   -142.9607         0.013665   
    167. D(B   8,B   4,B   2,B   0)   -108.1311         0.013665   
    168. D(B   6,B   4,B   2,B   8)    142.9607         0.013665   
    169. D(B   6,B   4,B   2,B   0)     34.8296         0.013665   
    170. D(B   8,B   4,B   2,B   1)    -40.1091         0.013665   
    171. D(B   6,B   4,B   2,B   1)    102.8516         0.013665   
    172. D(B   7,B   5,B   0,B   2)     91.6128         0.010000   
    173. D(B   7,B   5,B   0,B   6)    127.5677         0.010000   
    174. D(B  10,B   5,B   0,B   2)      2.9454         0.010000   
    175. D(B  10,B   5,B   0,B   1)    -56.9863         0.010000   
    176. D(B   7,B   5,B   0,B   1)     31.6811         0.010000   
    177. D(B   6,B   5,B   0,B   7)   -127.5677         0.010000   
    178. D(B   6,B   5,B   0,B   1)    -95.8866         0.010000   
    179. D(B   6,B   5,B   0,B   2)    -35.9549         0.010000   
    180. D(B   4,B   6,B   2,B   1)   -102.4538         0.010000   
    181. D(B   4,B   6,B   2,B   0)   -136.4323         0.010000   
    182. D(B   0,B   6,B   2,B   8)     89.2409         0.010000   
    183. D(B   0,B   6,B   2,B   4)    136.4323         0.010000   
    184. D(B   0,B   6,B   2,B   1)     33.9785         0.010000   
    185. D(B   5,B   6,B   2,B   1)     -1.3924         0.010000   
    186. D(B   4,B   6,B   0,B   2)     37.7762         0.013399   
    187. D(B   2,B   6,B   0,B   7)    -94.0227         0.013399   
    188. D(B   2,B   6,B   0,B   1)    -28.5847         0.013399   
    189. D(B   4,B   6,B   0,B   1)      9.1914         0.013399   
    190. D(B   4,B   6,B   2,B   8)    -47.1914         0.010000   
    191. D(B   2,B   6,B   0,B   5)   -141.4688         0.013399   
    192. D(B   5,B   6,B   2,B   0)    -35.3710         0.010000   
    193. D(B   4,B   6,B   0,B   5)   -103.6927         0.013399   
    194. D(B   5,B   6,B   0,B   1)    112.8841         0.013399   
    195. D(B   2,B   6,B   5,B  11)    -63.8327         0.010000   
    196. D(B   2,B   6,B   5,B  10)   -100.5154         0.010000   
    197. D(B   0,B   6,B   5,B  11)   -103.5818         0.010000   
    198. D(B   0,B   6,B   5,B  10)   -140.2644         0.010000   
    199. D(B   0,B   6,B   5,B   7)    -44.6710         0.010000   
    200. D(B   2,B   6,B   5,B   7)     -4.9219         0.010000   
    201. D(B   5,B   6,B   4,B   8)    -74.9477         0.010000   
    202. D(B   5,B   6,B   4,B   2)   -105.7461         0.010000   
    203. D(B   2,B   6,B   4,B   9)    102.8475         0.010000   
    204. D(B   2,B   6,B   4,B   8)     30.7984         0.010000   
    205. D(B   0,B   6,B   4,B   9)     59.4033         0.010000   
    206. D(B   2,B   6,B   5,B   0)     39.7491         0.010000   
    207. D(B   0,B   6,B   4,B   8)    -12.6458         0.010000   
    208. D(B   0,B   6,B   4,B   2)    -43.4442         0.010000   
    209. D(B   4,B   6,B   5,B   0)    101.4027         0.010000   
    210. D(B   4,B   6,B   0,B   7)    -56.2466         0.013399   
    211. D(B   3,B   7,B   5,B   0)   -102.4532         0.010000   
    212. D(B   1,B   7,B   5,B  11)    117.3173         0.010000   
    213. D(B   1,B   7,B   5,B  10)     77.3597         0.010000   
    214. D(B   1,B   7,B   5,B   0)    -30.4916         0.010000   
    215. D(B   0,B   7,B   5,B  11)    147.8089         0.010000   
    216. D(B   0,B   7,B   5,B  10)    107.8513         0.010000   
    217. D(B   1,B   7,B   3,B   9)    -94.4480         0.013198   
    218. D(B   3,B   7,B   1,B   0)    146.6342         0.010000   
    219. D(B   0,B   7,B   3,B   9)    -61.5315         0.013198   
    220. D(B   0,B   7,B   3,B   8)     10.6127         0.013198   
    221. D(B   5,B   7,B   1,B   2)    -10.4340         0.010000   
    222. D(B   0,B   7,B   3,B  11)   -109.6165         0.013198   
    223. D(B   5,B   7,B   1,B   0)     28.9746         0.010000   
    224. D(B   3,B   7,B   1,B   8)     36.1432         0.010000   
    225. D(B   3,B   7,B   1,B   2)    107.2255         0.010000   
    226. D(B   0,B   7,B   3,B   1)     32.9165         0.013198   
    227. D(B   1,B   7,B   3,B  11)   -142.5330         0.013198   
    228. D(B   1,B   7,B   3,B   8)    -22.3039         0.013198   
    229. D(B   0,B   7,B   1,B   8)   -110.4910         0.010000   
    230. D(B   0,B   7,B   1,B   3)   -146.6342         0.010000   
    231. D(B   5,B   7,B   3,B   1)    100.0042         0.013198   
    232. D(B   0,B   7,B   1,B   2)    -39.4086         0.010000   
    233. D(B   5,B   7,B   0,B   1)   -147.8334         0.010000   
    234. D(B   3,B   7,B   0,B   5)    114.4318         0.010000   
    235. D(B   1,B   7,B   0,B   6)     95.4656         0.010000   
    236. D(B   1,B   7,B   0,B   5)    147.8334         0.010000   
    237. D(B   1,B   7,B   0,B   2)     35.2119         0.010000   
    238. D(B   1,B   7,B   5,B   6)      8.7900         0.010000   
    239. D(B   3,B   7,B   0,B   2)      1.8103         0.010000   
    240. D(B   3,B   7,B   0,B   6)     62.0639         0.010000   
    241. D(B   3,B   7,B   0,B   1)    -33.4017         0.010000   
    242. D(B   0,B   7,B   5,B   6)     39.2816         0.010000   
    243. D(B   1,B   8,B   3,B   9)    129.2594         0.010000   
    244. D(B   1,B   8,B   3,B   7)     30.4829         0.010000   
    245. D(B   3,B   8,B   2,B   6)    -38.0497         0.010000   
    246. D(B   3,B   8,B   2,B   1)     48.6722         0.010000   
    247. D(B   3,B   8,B   2,B   0)     20.9244         0.010000   
    248. D(B   1,B   8,B   2,B   6)    -86.7220         0.010000   
    249. D(B   1,B   8,B   2,B   4)   -128.3799         0.010000   
    250. D(B   1,B   8,B   2,B   0)    -27.7479         0.010000   
    251. D(B   4,B   8,B   1,B   0)     -5.7215         0.031909   
    252. D(B   3,B   8,B   1,B   7)    -27.7615         0.031909   
    253. D(B   3,B   8,B   1,B   2)   -122.2416         0.031909   
    254. D(B   3,B   8,B   2,B   4)    -79.7077         0.010000   
    255. D(B   3,B   8,B   1,B   0)    -92.3945         0.031909   
    256. D(B   2,B   8,B   1,B   7)     94.4801         0.031909   
    257. D(B   2,B   8,B   1,B   3)    122.2416         0.031909   
    258. D(B   1,B   8,B   3,B  11)     91.4433         0.010000   
    259. D(B   2,B   8,B   1,B   0)     29.8471         0.031909   
    260. D(B   3,B   8,B   4,B   2)    104.8768         0.010000   
    261. D(B   2,B   8,B   4,B   9)   -136.8307         0.010000   
    262. D(B   2,B   8,B   4,B   6)    -33.6085         0.010000   
    263. D(B   1,B   8,B   4,B   9)    -92.4880         0.010000   
    264. D(B   1,B   8,B   4,B   6)     10.7343         0.010000   
    265. D(B   1,B   8,B   4,B   2)     44.3427         0.010000   
    266. D(B   2,B   8,B   3,B  11)     41.6098         0.010000   
    267. D(B   2,B   8,B   3,B   9)     79.4259         0.010000   
    268. D(B   2,B   8,B   3,B   7)    -19.3506         0.010000   
    269. D(B   2,B   8,B   3,B   1)    -49.8335         0.010000   
    270. D(B  10,B   9,B   4,B   8)    132.9732         0.010000   
    271. D(B  10,B   9,B   4,B   6)     31.4253         0.010000   
    272. D(B  10,B   9,B   4,B   2)     96.8078         0.010000   
    273. D(B   3,B   9,B   4,B   8)     40.4114         0.010000   
    274. D(B   3,B   9,B   4,B   6)    -61.1365         0.010000   
    275. D(B   3,B   9,B   4,B   2)      4.2460         0.010000   
    276. D(B  10,B   9,B   3,B   8)   -111.6481         0.010000   
    277. D(B  10,B   9,B   3,B   7)    -11.1944         0.010000   
    278. D(B  10,B   9,B   3,B   1)    -79.0809         0.010000   
    279. D(B   4,B   9,B   3,B  11)    104.6566         0.010000   
    280. D(B   4,B   9,B   3,B   8)    -40.4407         0.010000   
    281. D(B   4,B   9,B   3,B   7)     60.0130         0.010000   
    282. D(B   4,B   9,B   3,B   1)     -7.8735         0.010000   
    283. D(B   6,B  10,B   9,B  11)    122.5540         0.010000   
    284. D(B   6,B  10,B   9,B   4)    -25.6518         0.010000   
    285. D(B   6,B  10,B   9,B   3)     80.8422         0.010000   
    286. D(B   5,B  10,B   9,B   4)    -89.4711         0.010000   
    287. D(B   5,B  10,B   9,B   3)     17.0228         0.010000   
    288. D(B   9,B  10,B   6,B   5)   -115.4413         0.010000   
    289. D(B   9,B  10,B   6,B   4)     27.4185         0.010000   
    290. D(B   9,B  10,B   6,B   2)    -13.0277         0.010000   
    291. D(B   9,B  10,B   6,B   0)    -82.5758         0.010000   
    292. D(B   5,B  10,B   6,B   4)    142.8597         0.010000   
    293. D(B   5,B  10,B   6,B   2)    102.4135         0.010000   
    294. D(B   5,B  10,B   6,B   0)     32.8654         0.010000   
    295. D(B   9,B  10,B   5,B  11)    -54.8574         0.018636   
    296. D(B   9,B  10,B   5,B   7)    -13.1452         0.018636   
    297. D(B   9,B  10,B   5,B   6)     81.8845         0.018636   
    298. D(B   5,B  10,B   9,B  11)     58.7346         0.010000   
    299. D(B   9,B  10,B   5,B   0)     49.4196         0.018636   
    300. D(B   6,B  10,B   5,B  11)   -136.7419         0.018636   
    301. D(B   6,B  10,B   5,B   7)    -95.0297         0.018636   
    302. D(B   6,B  10,B   5,B   0)    -32.4649         0.018636   
    303. D(B   7,B  11,B  10,B   6)      5.9855         0.010000   
    304. D(B   5,B  11,B  10,B   9)    125.9954         0.010000   
    305. D(B   5,B  11,B  10,B   6)     46.4490         0.010000   
    306. D(B   3,B  11,B  10,B   9)     36.7611         0.010000   
    307. D(B   3,B  11,B  10,B   5)    -89.2343         0.010000   
    308. D(B   7,B  11,B   9,B   4)    -63.1760         0.010000   
    309. D(B   7,B  11,B   9,B   3)     37.6200         0.010000   
    310. D(B   5,B  11,B   9,B   4)     -7.4012         0.010000   
    311. D(B   5,B  11,B   9,B   3)     93.3948         0.010000   
    312. D(B   3,B  11,B   9,B  10)   -132.6778         0.010000   
    313. D(B   3,B  11,B   9,B   4)   -100.7960         0.010000   
    314. D(B   9,B  11,B   7,B   1)      0.6970         0.010000   
    315. D(B   9,B  11,B   7,B   0)     72.2334         0.010000   
    316. D(B   5,B  11,B   7,B   3)   -141.6191         0.010000   
    317. D(B   5,B  11,B   7,B   1)   -101.1914         0.010000   
    318. D(B   5,B  11,B   7,B   0)    -29.6550         0.010000   
    319. D(B   3,B  11,B   7,B   5)    141.6191         0.010000   
    320. D(B   3,B  11,B   7,B   1)     40.4276         0.010000   
    321. D(B   3,B  11,B   7,B   0)    111.9640         0.010000   
    322. D(B   9,B  11,B   5,B   0)    -50.8050         0.010000   
    323. D(B   7,B  11,B   5,B  10)    129.1892         0.010000   
    324. D(B   7,B  11,B   5,B   6)     86.7882         0.010000   
    325. D(B   7,B  11,B   5,B   0)     30.4381         0.010000   
    326. D(B   3,B  11,B   5,B  10)    100.8919         0.010000   
    327. D(B   3,B  11,B   5,B   7)    -28.2973         0.010000   
    328. D(B   3,B  11,B   5,B   6)     58.4909         0.010000   
    329. D(B   3,B  11,B   5,B   0)      2.1407         0.010000   
    330. D(B   5,B  11,B   9,B  10)    -39.2830         0.010000   
    331. D(B   9,B  11,B   3,B   1)     88.5539         0.010000   
    332. D(B   7,B  11,B   3,B   9)   -126.2715         0.010000   
    333. D(B   7,B  11,B   3,B   8)    -86.4962         0.010000   
    334. D(B   3,B  11,B  10,B   6)    -42.7853         0.010000   
    335. D(B   7,B  11,B   3,B   1)    -37.7177         0.010000   
    336. D(B   5,B  11,B   3,B   9)    -94.6847         0.010000   
    337. D(B   5,B  11,B   3,B   8)    -54.9094         0.010000   
    338. D(B   7,B  11,B  10,B   5)    -40.4635         0.010000   
    339. D(B   5,B  11,B   3,B   7)     31.5868         0.010000   
    340. D(B   5,B  11,B   3,B   1)     -6.1309         0.010000   
    -----------------------------------------------------------------

Number of atoms                         .... 12
Number of degrees of freedom            .... 340


         *************************************************************
         *                GEOMETRY OPTIMIZATION CYCLE   1            *
         *************************************************************
---------------------------------
CARTESIAN COORDINATES (ANGSTROEM)
---------------------------------
  B      0.051838   -0.726757   -1.325763
  B     -1.045474   -1.239526    0.066956
  B     -1.455872    0.087168   -0.795314
  B      0.044120   -0.845737    1.457336
  B     -0.960468    1.350892   -0.072318
  B      1.465156    0.005958   -0.893869
  B     -0.117286    0.811421   -1.374108
  B      0.808660   -1.181219    0.151009
  B     -1.782003   -0.283352    0.823784
  B     -0.063329    0.882046    1.407927
  B      1.167676    1.208526   -0.056641
  B      1.681745    0.097005    0.949460

----------------------------
CARTESIAN COORDINATES (A.U.)
----------------------------
  NO LB      ZA    FRAG     MASS         X           Y           Z
   0 B     5.0000    0    10.810    0.097959   -1.373372   -2.505330
   1 B     5.0000    0    10.810   -1.975659   -2.342364    0.126529
   2 B     5.0000    0    10.810   -2.751199    0.164723   -1.502926
   3 B     5.0000    0    10.810    0.083374   -1.598211    2.753966
   4 B     5.0000    0    10.810   -1.815022    2.552817   -0.136661
   5 B     5.0000    0    10.810    2.768743    0.011260   -1.689167
   6 B     5.0000    0    10.810   -0.221639    1.533364   -2.596687
   7 B     5.0000    0    10.810    1.528145   -2.232181    0.285365
   8 B     5.0000    0    10.810   -3.367498   -0.535458    1.556727
   9 B     5.0000    0    10.810   -0.119674    1.666826    2.660597
  10 B     5.0000    0    10.810    2.206587    2.283783   -0.107036
  11 B     5.0000    0    10.810    3.178037    0.183314    1.794218

--------------------------------
INTERNAL COORDINATES (ANGSTROEM)
--------------------------------
 B      0   0   0     0.000000000000     0.00000000     0.00000000
 B      1   0   0     1.845722300531     0.00000000     0.00000000
 B      2   1   0     1.634641187897    61.68956781     0.00000000
 B      2   1   3     1.809817426096    99.28329165   249.56905190
 B      3   2   1     1.537903938881   109.75842568   263.39800013
 B      1   2   3     1.649507075526   115.79957821   104.54890244
 B      1   2   3     1.548203142810   103.57001490    30.29030293
 B      4   2   1     1.550341988104    66.57706238   332.70392433
 B      2   1   3     1.424616576997   121.45079041   328.70112472
 B      4   2   1     1.731825873462    99.07957647    72.85625022
 B      6   1   2     1.495196700878   109.47584936   303.01371307
 B     11   6   1     1.584923319556    74.14908172   104.27701556

---------------------------
INTERNAL COORDINATES (A.U.)
---------------------------
 B      0   0   0     0.000000000000     0.00000000     0.00000000
 B      1   0   0     3.487909667275     0.00000000     0.00000000
 B      2   1   0     3.089024172353    61.68956781     0.00000000
 B      2   1   3     3.420059287720    99.28329165   249.56905190
 B      3   2   1     2.906217264764   109.75842568   263.39800013
 B      1   2   3     3.117116628710   115.79957821   104.54890244
 B      1   2   3     2.925679939587   103.57001490    30.29030293
 B      4   2   1     2.929721771436    66.57706238   332.70392433
 B      2   1   3     2.692135176368   121.45079041   328.70112472
 B      4   2   1     3.272676612483    99.07957647    72.85625022
 B      6   1   2     2.825512281001   109.47584936   303.01371307
 B     11   6   1     2.995071017226    74.14908172   104.27701556

---------------------
BASIS SET INFORMATION
---------------------
There are 1 groups of distinct atoms

 Group   1 Type B   : 7s4p1d contracted to 3s2p1d pattern {511/31/1}

Atom   0B    basis set group =>   1
Atom   1B    basis set group =>   1
Atom   2B    basis set group =>   1
Atom   3B    basis set group =>   1
Atom   4B    basis set group =>   1
Atom   5B    basis set group =>   1
Atom   6B    basis set group =>   1
Atom   7B    basis set group =>   1
Atom   8B    basis set group =>   1
Atom   9B    basis set group =>   1
Atom  10B    basis set group =>   1
Atom  11B    basis set group =>   1
---------------------------------
AUXILIARY/J BASIS SET INFORMATION
---------------------------------
There are 1 groups of distinct atoms

 Group   1 Type B   : 12s5p4d2f1g contracted to 6s4p3d1f1g pattern {711111/2111/211/2/1}

Atom   0B    basis set group =>   1
Atom   1B    basis set group =>   1
Atom   2B    basis set group =>   1
Atom   3B    basis set group =>   1
Atom   4B    basis set group =>   1
Atom   5B    basis set group =>   1
Atom   6B    basis set group =>   1
Atom   7B    basis set group =>   1
Atom   8B    basis set group =>   1
Atom   9B    basis set group =>   1
Atom  10B    basis set group =>   1
Atom  11B    basis set group =>   1


           ************************************************************
           *        Program running with 8 parallel MPI-processes     *
           *              working on a common directory               *
           ************************************************************
------------------------------------------------------------------------------
                             ORCA STARTUP CALCULATIONS
                           -- RI-GTO INTEGRALS CHOSEN --
------------------------------------------------------------------------------
------------------------------------------------------------------------------
                   ___                                                        
                  /   \      - P O W E R E D   B Y -                         
                 /     \                                                     
                 |  |  |   _    _      __       _____    __    __             
                 |  |  |  | |  | |    /  \     |  _  \  |  |  /  |          
                  \  \/   | |  | |   /    \    | | | |  |  | /  /          
                 / \  \   | |__| |  /  /\  \   | |_| |  |  |/  /          
                |  |  |   |  __  | /  /__\  \  |    /   |      \           
                |  |  |   | |  | | |   __   |  |    \   |  |\   \          
                \     /   | |  | | |  |  |  |  | |\  \  |  | \   \       
                 \___/    |_|  |_| |__|  |__|  |_| \__\ |__|  \__/        
                                                                              
                      - O R C A' S   B I G   F R I E N D -                    
                                      &                                       
                       - I N T E G R A L  F E E D E R -                       
                                                                              
 v1 FN, 2020, v2 2021, v3 2022-2024                                           
------------------------------------------------------------------------------


----------------------
SHARK INTEGRAL PACKAGE
----------------------

Number of atoms                             ...     12
Number of basis functions                   ...    168
Number of shells                            ...     72
Maximum angular momentum                    ...      2
Integral batch strategy                     ... SHARK/LIBINT Hybrid
RI-J (if used) integral strategy            ... SPLIT-RIJ (Revised 2003 algorithm where possible)
Printlevel                                  ...      1
Contraction scheme used                     ... SEGMENTED contraction
Prescreening option                         ... SCHWARTZ
   Thresh                                   ... 2.500e-11
   Tcut                                     ... 2.500e-12
   Tpresel                                  ... 2.500e-12 
Coulomb Range Separation                    ... NOT USED
Exchange Range Separation                   ... NOT USED
Multipole approximations                    ... NOT USED
Finite Nucleus Model                        ... NOT USED
CABS basis                                  ... NOT available
Auxiliary Coulomb fitting basis             ... AVAILABLE
   # of basis functions in Aux-J            ...    588
   # of shells in Aux-J                     ...    180
   Maximum angular momentum in Aux-J        ...      4
Auxiliary J/K fitting basis                 ... NOT available
Auxiliary Correlation fitting basis         ... NOT available
Auxiliary 'external' fitting basis          ... NOT available

Checking pre-screening integrals            ... done (  0.0 sec) Dimension = 72
   => SHARK Basis and OBASIS are compatible. Storing Pre-screening
Shell pair information
Shell pair cut-off parameter TPreSel        ...   2.5e-12
Total number of shell pairs                 ...      2628
Shell pairs after pre-screening             ...      2593
Total number of primitive shell pairs       ...     10596
Primitive shell pairs kept                  ...      8170
          la=0 lb=0:    631 shell pairs
          la=1 lb=0:    864 shell pairs
          la=1 lb=1:    300 shell pairs
          la=2 lb=0:    432 shell pairs
          la=2 lb=1:    288 shell pairs
          la=2 lb=2:     78 shell pairs

Checking whether 4 symmetric matrices of dimension 168 fit in memory
:Max Core in MB      =   2500.00
 MB in use           =      6.96
 MB left             =   2493.04
 MB needed           =      0.43
 Data fit in memory  = YES
Calculating RI/J V-Matrix + Cholesky decomp.... done (  0.0 sec)
Calculating Nuclear repulsion               ... done (  0.0 sec) ENN=    389.902614796039 Eh

Diagonalization of the overlap matrix:
Smallest eigenvalue                        ... 9.592e-05
Time for diagonalization                   ...    0.004 sec
Threshold for overlap eigenvalues          ... 1.000e-07
Number of eigenvalues below threshold      ... 0
Time for construction of square roots      ...    0.002 sec
Total time needed                          ...    0.008 sec

-------------------
DFT GRID GENERATION
-------------------

General Integration Accuracy     IntAcc      ... 4.388
Radial Grid Type                 RadialGrid  ... OptM3 with GC (2021)
Angular Grid (max. ang.)         AngularGrid ... 4 (Lebedev-302)
Angular grid pruning method      GridPruning ... 4 (adaptive)
Weight generation scheme         WeightScheme... mBecke (2022)
Basis function cutoff            BFCut       ... 1.0000e-11
Integration weight cutoff        WCut        ... 1.0000e-14
Partially contracted basis set               ... off
Rotationally invariant grid construction     ... off
Angular grids for H and He will be reduced by one unit

Total number of grid points                  ...    69759
Total number of batches                      ...     1098
Average number of points per batch           ...       63
Average number of grid points per atom       ...     5813
Grids setup in   0.8 sec
Initializing property integral containers    ... done (  0.0 sec)

SHARK setup successfully completed in   0.9 seconds

Maximum memory used throughout the entire STARTUP-calculation: 19.7 MB


           ************************************************************
           *        Program running with 8 parallel MPI-processes     *
           *              working on a common directory               *
           ************************************************************
-------------------------------------------------------------------------------
                                 ORCA GUESS
                   Start orbitals & Density for SCF / CASSCF
-------------------------------------------------------------------------------

------------
SCF SETTINGS
------------
Hamiltonian:
 Density Functional     Method          .... DFT(GTOs)
 Exchange Functional    Exchange        .... B88
   X-Alpha parameter    XAlpha          ....  0.666667
   Becke's b parameter  XBeta           ....  0.004200
 Correlation Functional Correlation     .... P86
 LDA part of GGA corr.  LDAOpt          .... PW91-LDA
 Gradients option       PostSCFGGA      .... off
   NL short-range parameter             ....  4.400000
 RI-approximation to the Coulomb term is turned on
   Number of AuxJ basis functions       .... 588


General Settings:
 Integral files         IntName         .... icosahedron_nn1.70_perturb1
 Hartree-Fock type      HFTyp           .... RHF
 Total Charge           Charge          ....    0
 Multiplicity           Mult            ....    1
 Number of Electrons    NEL             ....   60
 Basis Dimension        Dim             ....  168
 Nuclear Repulsion      ENuc            ....    389.9026147960 Eh

Convergence Acceleration:
 AO-DIIS                CNVDIIS         .... on
   Start iteration      DIISMaxIt       ....     0
   Startup error        DIISStart       ....  0.200000
   # of expansion vecs  DIISMaxEq       ....     5
   Bias factor          DIISBfac        ....   1.050
   Max. coefficient     DIISMaxC        ....  10.000
 MO-DIIS                CNVKDIIS        .... off
 Trust-Rad. Augm. Hess. CNVTRAH         .... auto
   Auto Start mean grad. ratio tolernc. ....  1.125000
   Auto Start start iteration           ....    50
   Auto Start num. interpolation iter.  ....    10
   Max. Number of Micro iterations      ....    24
   Max. Number of Macro iterations      .... Maxiter - #DIIS iter
   Number of Davidson start vectors     ....     2
   Converg. threshold    (grad. norm)   ....   1.000e-05
   Grad. Scal. Fac. for Micro threshold ....   0.100
   Minimum threshold for Micro iter.    ....   1.000e-02
   NR start threshold (gradient norm)   ....   1.000e-04
   Initial trust radius                 ....   0.400
   Minimum AH scaling param. (alpha)    ....   1.000
   Maximum AH scaling param. (alpha)    .... 1000.000
   Quad. conv. algorithm                .... NR
   White noise on init. David. guess    .... on
   Maximum white noise                  ....   0.010
   Pseudo random numbers                .... off
   Inactive MOs                         .... canonical
   Orbital update algorithm             .... Taylor
   Preconditioner                       .... Diag
   Full preconditioner red. dimension   ....   250
 SOSCF                 CNVSOSCF           .... on
   Start iteration     SOSCFMaxIt         ....   150
   Startup grad/error  SOSCFStart         ....  0.001000
   Hessian update      SOSCFHessUp        .... L-BFGS
   Autom. constraints  SOSCFAutoConstrain .... off
 Level Shifting         CNVShift        .... on
   Level shift para.    LevelShift      ....    0.2500
   Turn off err/grad.   ShiftErr        ....    0.0000
 Zerner damping         CNVZerner       .... off
 Static damping         CNVDamp         .... on
   Fraction old density DampFac         ....    0.8500
   Max. Damping (<1)    DampMax         ....    0.9800
   Min. Damping (>=0)   DampMin         ....    0.0000
   Turn off err/grad.   DampErr         ....    0.0300

SCF Procedure:
 Maximum # iterations   MaxIter         ....   125
 SCF integral mode      SCFMode         .... Direct
   Integral package                     .... SHARK and LIBINT hybrid scheme
 Reset frequency        DirectResetFreq ....    20
 Integral Threshold     Thresh          ....  2.500e-11 Eh
 Primitive CutOff       TCut            ....  2.500e-12 Eh

Convergence Tolerance:
 Convergence Check Mode ConvCheckMode   .... Total+1el-Energy
 Convergence forced     ConvForced      .... 0
 Energy Change          TolE            ....  1.000e-08 Eh
 1-El. energy change                    ....  1.000e-05 Eh
 Orbital Gradient       TolG            ....  1.000e-05
 Orbital Rotation angle TolX            ....  1.000e-05
 DIIS Error             TolErr          ....  5.000e-07

------------------------------
INITIAL GUESS: MODEL POTENTIAL
------------------------------
Loading Hartree-Fock densities                     ... done
Calculating cut-offs                               ... done
Initializing the effective Hamiltonian             ... done
Setting up the integral package (SHARK)            ... done
Starting the Coulomb interaction                   ... done (   0.1 sec)
Making the grid                                    ... done (   0.2 sec)
Mapping shells                                     ... done
Starting the XC term evaluation                    ... done (   0.1 sec)
  promolecular density results
     # of electrons  =     59.999209390
     EX              =    -46.153011964
     EC              =     -2.066423222
     EX+EC           =    -48.219435186
Transforming the Hamiltonian                       ... done (   0.0 sec)
Diagonalizing the Hamiltonian                      ... done (   0.0 sec)
Back transforming the eigenvectors                 ... done (   0.0 sec)
Now organizing SCF variables                       ... done
                      ------------------
                      INITIAL GUESS DONE (   0.4 sec)
                      ------------------
             **** ENERGY FILE WAS UPDATED (icosahedron_nn1.70_perturb1.en.tmp) ****
Finished Guess after   1.0 sec
Maximum memory used throughout the entire GUESS-calculation: 9.8 MB


           ************************************************************
           *        Program running with 8 parallel MPI-processes     *
           *              working on a common directory               *
           ************************************************************

-------------------------------------------------------------------------------------------
                                      ORCA LEAN-SCF
                              memory conserving SCF solver
-------------------------------------------------------------------------------------------

----------------------------------------D-I-I-S--------------------------------------------
Iteration    Energy (Eh)           Delta-E    RMSDP     MaxDP     DIISErr   Damp  Time(sec)
-------------------------------------------------------------------------------------------
               ***  Starting incremental Fock matrix formation  ***
    1    -296.8406898665257927     0.00e+00  2.38e-02  2.51e-01  1.69e-01  0.850   0.7
Warning: op=0 Small HOMO/LUMO gap (  -0.035) - skipping pre-diagonalization
         Will do a full diagonalization
    2    -297.0296612529621711    -1.89e-01  2.32e-02  2.41e-01  1.18e-01  0.850   0.4
                               ***Turning on AO-DIIS***
    3    -297.1312662946712067    -1.02e-01  1.58e-02  2.39e-01  7.62e-02  0.850   0.4
    4    -297.1880812175413098    -5.68e-02  1.10e-02  1.75e-01  5.39e-02  0.850   0.7
    5    -297.2276369845807835    -3.96e-02  8.41e-03  1.23e-01  4.06e-02  0.850   0.9
    6    -297.2579812898267733    -3.03e-02  6.84e-03  9.01e-02  3.23e-02  0.850   0.5
    7    -297.2827991640705818    -2.48e-02  5.86e-03  7.10e-02  2.67e-02  0.850   0.5
    8    -297.3036638749551344    -2.09e-02  3.27e-02  4.20e-01  2.25e-02  0.000   0.5
    9    -297.4140430757112767    -1.10e-01  4.77e-03  4.28e-02  1.06e-02  0.000   0.4
   10    -297.4147970159182819    -7.54e-04  2.17e-03  1.88e-02  8.75e-03  0.000   0.7
   11    -297.4156698153475986    -8.73e-04  1.57e-03  1.50e-02  4.03e-03  0.000   0.5
   12    -297.4159534696702281    -2.84e-04  1.03e-03  1.07e-02  2.12e-03  0.000   0.5
                              *** Initializing SOSCF ***
---------------------------------------S-O-S-C-F--------------------------------------
Iteration    Energy (Eh)           Delta-E    RMSDP     MaxDP     MaxGrad    Time(sec)
--------------------------------------------------------------------------------------
   13    -297.4160528449719436    -9.94e-05  8.34e-04  8.55e-03  9.28e-04     0.3
               *** Restarting incremental Fock matrix formation ***
   14    -297.4160941930477406    -4.13e-05  1.57e-03  1.92e-02  8.29e-04     0.5
   15    -297.4161208217967101    -2.66e-05  4.17e-03  3.48e-02  1.12e-03     0.3
   16    -297.4161981882685382    -7.74e-05  1.37e-03  1.68e-02  4.57e-04     0.5
   17    -297.4161878844451508     1.03e-05  5.15e-04  4.44e-03  6.87e-04     0.4
   18    -297.4162102573715742    -2.24e-05  5.97e-04  8.39e-03  2.38e-04     0.6
   19    -297.4162050306767355     5.23e-06  5.05e-04  4.15e-03  3.97e-04     0.9
   20    -297.4162154795255333    -1.04e-05  6.15e-04  6.14e-03  1.81e-04     1.4
   21    -297.4162122742969245     3.21e-06  2.34e-04  3.16e-03  2.84e-04     0.9
   22    -297.4162174662364464    -5.19e-06  2.62e-04  2.28e-03  6.49e-05     0.7
   23    -297.4162178259778671    -3.60e-07  4.55e-04  4.30e-03  3.39e-05     0.4
   24    -297.4162181370930398    -3.11e-07  6.80e-05  6.16e-04  2.05e-05     0.4
   25    -297.4162181571797987    -2.01e-08  1.86e-05  1.84e-04  1.06e-05     0.3
   26    -297.4162181688356554    -1.17e-08  9.06e-06  7.22e-05  4.45e-06     0.7
   27    -297.4162181692005902    -3.65e-10  5.80e-06  5.94e-05  2.75e-06     0.6
                 **** Energy Check signals convergence ****

               *****************************************************
               *                     SUCCESS                       *
               *           SCF CONVERGED AFTER  27 CYCLES          *
               *****************************************************

             **** ENERGY FILE WAS UPDATED (icosahedron_nn1.70_perturb1.en.tmp) ****

----------------
TOTAL SCF ENERGY
----------------

Total Energy       :       -297.41621816910373 Eh           -8093.10674 eV

Components:
Nuclear Repulsion  :        389.90261479603924 Eh           10609.78954 eV
Electronic Energy  :       -687.31883296514297 Eh          -18702.89628 eV
One Electron Energy:      -1166.61618769555480 Eh          -31745.24036 eV
Two Electron Energy:        479.29735473041177 Eh           13042.34408 eV

Virial components:
Potential Energy   :       -590.89784595848107 Eh          -16079.14784 eV
Kinetic Energy     :        293.48162778937734 Eh            7986.04109 eV
Virial Ratio       :          2.01340659859823

DFT components:
N(Alpha)           :       30.000036375708 electrons
N(Beta)            :       30.000036375708 electrons
N(Total)           :       60.000072751417 electrons
E(X)               :      -46.512015248060 Eh       
E(C)               :       -2.096143438200 Eh       
E(XC)              :      -48.608158686260 Eh       

---------------
SCF CONVERGENCE
---------------

  Last Energy change         ...    3.6493e-10  Tolerance :   1.0000e-08
  Last MAX-Density change    ...    5.9370e-05  Tolerance :   1.0000e-07
  Last RMS-Density change    ...    5.7991e-06  Tolerance :   5.0000e-09
  Last DIIS Error            ...    9.2821e-04  Tolerance :   5.0000e-07
  Last Orbital Gradient      ...    2.7523e-06  Tolerance :   1.0000e-05
  Last Orbital Rotation      ...    2.0166e-05  Tolerance :   1.0000e-05


----------------
ORBITAL ENERGIES
----------------

  NO   OCC          E(Eh)            E(eV) 
   0   2.0000      -6.614142      -179.9800 
   1   2.0000      -6.602281      -179.6572 
   2   2.0000      -6.601030      -179.6232 
   3   2.0000      -6.600893      -179.6194 
   4   2.0000      -6.597335      -179.5226 
   5   2.0000      -6.596325      -179.4951 
   6   2.0000      -6.594460      -179.4444 
   7   2.0000      -6.590673      -179.3413 
   8   2.0000      -6.587011      -179.2417 
   9   2.0000      -6.585725      -179.2067 
  10   2.0000      -6.582732      -179.1252 
  11   2.0000      -6.580746      -179.0712 
  12   2.0000      -0.772605       -21.0236 
  13   2.0000      -0.655196       -17.8288 
  14   2.0000      -0.619479       -16.8569 
  15   2.0000      -0.574618       -15.6362 
  16   2.0000      -0.500865       -13.6292 
  17   2.0000      -0.469447       -12.7743 
  18   2.0000      -0.439530       -11.9602 
  19   2.0000      -0.429656       -11.6915 
  20   2.0000      -0.420217       -11.4347 
  21   2.0000      -0.359718        -9.7884 
  22   2.0000      -0.352928        -9.6037 
  23   2.0000      -0.328306        -8.9337 
  24   2.0000      -0.303918        -8.2700 
  25   2.0000      -0.296810        -8.0766 
  26   2.0000      -0.261168        -7.1068 
  27   2.0000      -0.236368        -6.4319 
  28   2.0000      -0.199900        -5.4396 
  29   2.0000      -0.180952        -4.9239 
  30   0.0000      -0.175721        -4.7816 
  31   0.0000      -0.156258        -4.2520 
  32   0.0000      -0.149107        -4.0574 
  33   0.0000      -0.132836        -3.6146 
  34   0.0000      -0.118840        -3.2338 
  35   0.0000      -0.105662        -2.8752 
  36   0.0000      -0.095994        -2.6121 
  37   0.0000      -0.074201        -2.0191 
  38   0.0000      -0.066980        -1.8226 
  39   0.0000      -0.037149        -1.0109 
  40   0.0000       0.016595         0.4516 
*Only the first 10 virtual orbitals were printed.

                    ********************************
                    * MULLIKEN POPULATION ANALYSIS *
                    ********************************

-----------------------
MULLIKEN ATOMIC CHARGES
-----------------------
   0 B :   -0.122799
   1 B :    0.233136
   2 B :    0.469524
   3 B :   -0.085487
   4 B :   -0.345955
   5 B :    0.085501
   6 B :    0.174695
   7 B :    0.144179
   8 B :   -0.406840
   9 B :   -0.054004
  10 B :    0.047078
  11 B :   -0.139027
Sum of atomic charges:   -0.0000000

--------------------------------
MULLIKEN REDUCED ORBITAL CHARGES
--------------------------------
  0 B s       :     2.718811  s :     2.718811
      pz      :     0.720679  p :     2.335340
      px      :     0.799478
      py      :     0.815183
      dz2     :     0.015439  d :     0.068649
      dxz     :     0.013215
      dyz     :     0.013965
      dx2y2   :     0.013491
      dxy     :     0.012539

  1 B s       :     2.408904  s :     2.408904
      pz      :     0.814676  p :     2.283370
      px      :     0.750469
      py      :     0.718226
      dz2     :     0.012437  d :     0.074590
      dxz     :     0.013501
      dyz     :     0.016633
      dx2y2   :     0.017101
      dxy     :     0.014919

  2 B s       :     2.202765  s :     2.202765
      pz      :     0.704909  p :     2.251334
      px      :     0.718697
      py      :     0.827728
      dz2     :     0.014665  d :     0.076377
      dxz     :     0.014538
      dyz     :     0.016613
      dx2y2   :     0.012938
      dxy     :     0.017624

  3 B s       :     2.959528  s :     2.959528
      pz      :     0.681416  p :     2.066067
      px      :     0.644461
      py      :     0.740191
      dz2     :     0.015908  d :     0.059892
      dxz     :     0.011535
      dyz     :     0.011671
      dx2y2   :     0.012296
      dxy     :     0.008482

  4 B s       :     3.029514  s :     3.029514
      pz      :     0.777040  p :     2.255588
      px      :     0.666657
      py      :     0.811891
      dz2     :     0.010078  d :     0.060854
      dxz     :     0.011825
      dyz     :     0.015493
      dx2y2   :     0.012840
      dxy     :     0.010618

  5 B s       :     2.794396  s :     2.794396
      pz      :     0.679767  p :     2.049319
      px      :     0.599236
      py      :     0.770316
      dz2     :     0.014564  d :     0.070784
      dxz     :     0.014545
      dyz     :     0.013865
      dx2y2   :     0.013030
      dxy     :     0.014781

  6 B s       :     2.460653  s :     2.460653
      pz      :     0.676840  p :     2.293801
      px      :     0.754614
      py      :     0.862347
      dz2     :     0.015669  d :     0.070851
      dxz     :     0.013448
      dyz     :     0.014728
      dx2y2   :     0.014198
      dxy     :     0.012808

  7 B s       :     2.329932  s :     2.329932
      pz      :     0.900439  p :     2.449003
      px      :     0.824949
      py      :     0.723614
      dz2     :     0.012671  d :     0.076885
      dxz     :     0.017153
      dyz     :     0.019369
      dx2y2   :     0.015417
      dxy     :     0.012275

  8 B s       :     3.544016  s :     3.544016
      pz      :     0.640286  p :     1.801292
      px      :     0.491879
      py      :     0.669128
      dz2     :     0.013657  d :     0.061532
      dxz     :     0.013250
      dyz     :     0.010663
      dx2y2   :     0.010818
      dxy     :     0.013145

  9 B s       :     2.981520  s :     2.981520
      pz      :     0.650565  p :     2.021523
      px      :     0.605049
      py      :     0.765909
      dz2     :     0.011843  d :     0.050961
      dxz     :     0.009413
      dyz     :     0.010542
      dx2y2   :     0.011040
      dxy     :     0.008124

 10 B s       :     2.679399  s :     2.679399
      pz      :     0.857933  p :     2.201884
      px      :     0.702053
      py      :     0.641898
      dz2     :     0.012769  d :     0.071639
      dxz     :     0.013893
      dyz     :     0.015772
      dx2y2   :     0.015577
      dxy     :     0.013628

 11 B s       :     3.256492  s :     3.256492
      pz      :     0.607063  p :     1.820959
      px      :     0.524948
      py      :     0.688949
      dz2     :     0.013620  d :     0.061575
      dxz     :     0.013230
      dyz     :     0.010517
      dx2y2   :     0.011557
      dxy     :     0.012652



                     *******************************
                     * LOEWDIN POPULATION ANALYSIS *
                     *******************************

----------------------
LOEWDIN ATOMIC CHARGES
----------------------
   0 B :   -0.046782
   1 B :   -0.001087
   2 B :   -0.033797
   3 B :    0.010110
   4 B :    0.017089
   5 B :   -0.041405
   6 B :   -0.025120
   7 B :    0.017929
   8 B :   -0.003066
   9 B :    0.031710
  10 B :    0.074317
  11 B :    0.000101

-------------------------------
LOEWDIN REDUCED ORBITAL CHARGES
-------------------------------
  0 B s       :     2.590680  s :     2.590680
      pz      :     0.729406  p :     2.280101
      px      :     0.744959
      py      :     0.805737
      dz2     :     0.036477  d :     0.176000
      dxz     :     0.036550
      dyz     :     0.027134
      dx2y2   :     0.040342
      dxy     :     0.035499

  1 B s       :     2.573219  s :     2.573219
      pz      :     0.793648  p :     2.239741
      px      :     0.745601
      py      :     0.700491
      dz2     :     0.032163  d :     0.188128
      dxz     :     0.041384
      dyz     :     0.041560
      dx2y2   :     0.040849
      dxy     :     0.032171

  2 B s       :     2.593632  s :     2.593632
      pz      :     0.728134  p :     2.237561
      px      :     0.681680
      py      :     0.827747
      dz2     :     0.039177  d :     0.202604
      dxz     :     0.031891
      dyz     :     0.051437
      dx2y2   :     0.033501
      dxy     :     0.046598

  3 B s       :     2.664950  s :     2.664950
      pz      :     0.748871  p :     2.177845
      px      :     0.646993
      py      :     0.781980
      dz2     :     0.036940  d :     0.147095
      dxz     :     0.032719
      dyz     :     0.021257
      dx2y2   :     0.037635
      dxy     :     0.018543

  4 B s       :     2.618348  s :     2.618348
      pz      :     0.813588  p :     2.212290
      px      :     0.670433
      py      :     0.728269
      dz2     :     0.025440  d :     0.152273
      dxz     :     0.034932
      dyz     :     0.040527
      dx2y2   :     0.028571
      dxy     :     0.022803

  5 B s       :     2.648895  s :     2.648895
      pz      :     0.699856  p :     2.208735
      px      :     0.692500
      py      :     0.816379
      dz2     :     0.040578  d :     0.183774
      dxz     :     0.031597
      dyz     :     0.040806
      dx2y2   :     0.032842
      dxy     :     0.037952

  6 B s       :     2.599252  s :     2.599252
      pz      :     0.687766  p :     2.241776
      px      :     0.706954
      py      :     0.847056
      dz2     :     0.035455  d :     0.184092
      dxz     :     0.041096
      dyz     :     0.028050
      dx2y2   :     0.043056
      dxy     :     0.036435

  7 B s       :     2.579609  s :     2.579609
      pz      :     0.856564  p :     2.211385
      px      :     0.742092
      py      :     0.612729
      dz2     :     0.033027  d :     0.191077
      dxz     :     0.048421
      dyz     :     0.050452
      dx2y2   :     0.033667
      dxy     :     0.025509

  8 B s       :     2.770340  s :     2.770340
      pz      :     0.732858  p :     2.085426
      px      :     0.635543
      py      :     0.717025
      dz2     :     0.034135  d :     0.147300
      dxz     :     0.028253
      dyz     :     0.029514
      dx2y2   :     0.022743
      dxy     :     0.032655

  9 B s       :     2.749425  s :     2.749425
      pz      :     0.689447  p :     2.105415
      px      :     0.642557
      py      :     0.773411
      dz2     :     0.026690  d :     0.113450
      dxz     :     0.022889
      dyz     :     0.017033
      dx2y2   :     0.030604
      dxy     :     0.016234

 10 B s       :     2.613862  s :     2.613862
      pz      :     0.835695  p :     2.139460
      px      :     0.669553
      py      :     0.634212
      dz2     :     0.029772  d :     0.172362
      dxz     :     0.040047
      dyz     :     0.040725
      dx2y2   :     0.035830
      dxy     :     0.025988

 11 B s       :     2.762459  s :     2.762459
      pz      :     0.663494  p :     2.086461
      px      :     0.670103
      py      :     0.752864
      dz2     :     0.037248  d :     0.150979
      dxz     :     0.027133
      dyz     :     0.029746
      dx2y2   :     0.023298
      dxy     :     0.033554



                      *****************************
                      * MAYER POPULATION ANALYSIS *
                      *****************************

  NA   - Mulliken gross atomic population
  ZA   - Total nuclear charge
  QA   - Mulliken gross atomic charge
  VA   - Mayer's total valence
  BVA  - Mayer's bonded valence
  FA   - Mayer's free valence

  ATOM       NA         ZA         QA         VA         BVA        FA
  0 B      5.1228     5.0000    -0.1228     4.4284     4.4284    -0.0000
  1 B      4.7669     5.0000     0.2331     3.8740     3.8740     0.0000
  2 B      4.5305     5.0000     0.4695     3.3331     3.3331     0.0000
  3 B      5.0855     5.0000    -0.0855     4.0782     4.0782    -0.0000
  4 B      5.3460     5.0000    -0.3460     4.3149     4.3149    -0.0000
  5 B      4.9145     5.0000     0.0855     3.6092     3.6092    -0.0000
  6 B      4.8253     5.0000     0.1747     4.0041     4.0041     0.0000
  7 B      4.8558     5.0000     0.1442     3.8270     3.8270    -0.0000
  8 B      5.4068     5.0000    -0.4068     3.3484     3.3484    -0.0000
  9 B      5.0540     5.0000    -0.0540     3.7418     3.7418     0.0000
 10 B      4.9529     5.0000     0.0471     4.0279     4.0279    -0.0000
 11 B      5.1390     5.0000    -0.1390     3.6258     3.6258     0.0000

  Mayer bond orders larger than 0.100000
B(  0-B ,  1-B ) :   0.5662 B(  0-B ,  2-B ) :   0.3665 B(  0-B ,  3-B ) :   0.1754 
B(  0-B ,  4-B ) :   0.4423 B(  0-B ,  5-B ) :   0.5588 B(  0-B ,  6-B ) :   0.8219 
B(  0-B ,  7-B ) :   0.6253 B(  0-B ,  8-B ) :   0.3816 B(  0-B ,  9-B ) :   0.1783 
B(  0-B , 10-B ) :   0.1692 B(  0-B , 11-B ) :   0.1429 B(  1-B ,  2-B ) :   0.6052 
B(  1-B ,  3-B ) :   0.6204 B(  1-B ,  4-B ) :   0.1780 B(  1-B ,  5-B ) :   0.1515 
B(  1-B ,  6-B ) :   0.1555 B(  1-B ,  7-B ) :   0.5508 B(  1-B ,  8-B ) :   0.7107 
B(  1-B , 10-B ) :   0.1676 B(  1-B , 11-B ) :   0.1234 B(  2-B ,  3-B ) :   0.1309 
B(  2-B ,  4-B ) :   0.7512 B(  2-B ,  5-B ) :   0.1608 B(  2-B ,  6-B ) :   0.5186 
B(  2-B ,  7-B ) :   0.1927 B(  2-B ,  8-B ) :   0.2222 B(  2-B ,  9-B ) :   0.1240 
B(  2-B , 10-B ) :   0.1461 B(  2-B , 11-B ) :   0.1149 B(  3-B ,  5-B ) :   0.2157 
B(  3-B ,  6-B ) :   0.1976 B(  3-B ,  7-B ) :   0.7432 B(  3-B ,  8-B ) :   0.4346 
B(  3-B ,  9-B ) :   1.0816 B(  3-B , 11-B ) :   0.4392 B(  4-B ,  6-B ) :   0.6630 
B(  4-B ,  7-B ) :   0.1034 B(  4-B ,  8-B ) :   0.6500 B(  4-B ,  9-B ) :   0.8711 
B(  4-B , 10-B ) :   0.5513 B(  5-B ,  6-B ) :   0.3233 B(  5-B ,  7-B ) :   0.6177 
B(  5-B ,  8-B ) :   0.2868 B(  5-B ,  9-B ) :   0.1011 B(  5-B , 10-B ) :   0.7297 
B(  5-B , 11-B ) :   0.4162 B(  6-B ,  7-B ) :   0.2432 B(  6-B ,  8-B ) :   0.1325 
B(  6-B , 10-B ) :   0.6859 B(  6-B , 11-B ) :   0.2122 B(  7-B , 11-B ) :   0.5503 
B(  8-B ,  9-B ) :   0.2806 B(  8-B , 11-B ) :   0.2124 B(  9-B , 10-B ) :   0.5161 
B(  9-B , 11-B ) :   0.4196 B( 10-B , 11-B ) :   0.9478 

-------
TIMINGS
-------

Total SCF time: 0 days 0 hours 0 min 16 sec 

Total time                  ....      16.947 sec
Sum of individual times     ....      16.248 sec  ( 95.9%)

SCF preparation             ....       0.520 sec  (  3.1%)
Fock matrix formation       ....      12.445 sec  ( 73.4%)
  Startup                   ....       0.030 sec  (  0.2% of F)
  Split-RI-J                ....       3.488 sec  ( 28.0% of F)
  XC integration            ....       8.253 sec  ( 66.3% of F)
    XC Preparation          ....       0.000 sec  (  0.0% of XC)
    Basis function eval.    ....       1.473 sec  ( 17.9% of XC)
    Density eval.           ....       1.238 sec  ( 15.0% of XC)
    XC-Functional eval.     ....       0.183 sec  (  2.2% of XC)
    XC-Potential eval.      ....       1.626 sec  ( 19.7% of XC)
Diagonalization             ....       0.000 sec  (  0.0%)
Density matrix formation    ....       0.389 sec  (  2.3%)
Total Energy calculation    ....       0.400 sec  (  2.4%)
Population analysis         ....       0.066 sec  (  0.4%)
Orbital Transformation      ....       0.050 sec  (  0.3%)
Orbital Orthonormalization  ....       0.000 sec  (  0.0%)
DIIS solution               ....       1.071 sec  (  6.3%)
SOSCF solution              ....       1.307 sec  (  7.7%)
Finished LeanSCF after  17.0 sec

Maximum memory used throughout the entire LEANSCF-calculation: 10.3 MB


-------------------------------------------------------------------------------
                          DFT DISPERSION CORRECTION                            
                                                                               
                              DFTD3 V3.1  Rev 1                                
                          USING Becke-Johnson damping                          
-------------------------------------------------------------------------------
The BP86 functional is recognized
Active option DFTDOPT                   ...         4   

molecular C6(AA) [au] = 4113.647076 


            DFT-D V3
 parameters
 s6 scaling factor         :     1.0000 
 a1 scaling factor         :     0.3946 
 s8 scaling factor         :     3.2822 
 a2 scaling factor         :     4.8516 
 ad hoc parameters k1-k3   :    16.0000     1.3333    -4.0000 

 Edisp/kcal,au: -23.958442143894  -0.038180203771 
 E6   /kcal   :  -6.817605872 
 E8   /kcal   : -17.140836272 
 % E8         :  71.544035163 

-------------------------   ----------------
Dispersion correction           -0.038180204
-------------------------   ----------------


-------------------------   --------------------
FINAL SINGLE POINT ENERGY      -297.454398372875
-------------------------   --------------------



           ************************************************************
           *        Program running with 8 parallel MPI-processes     *
           *              working on a common directory               *
           ************************************************************
------------------------------------------------------------------------------
                         ORCA SCF GRADIENT CALCULATION
------------------------------------------------------------------------------

Nuc. rep. gradient        (SHARK) ... done (  0.0 sec)
[...]
      dyz     :     0.014417
      dx2y2   :     0.012371
      dxy     :     0.010687

 10 B s       :     2.521063  s :     2.521063
      pz      :     0.843790  p :     2.375575
      px      :     0.799468
      py      :     0.732318
      dz2     :     0.011812  d :     0.073989
      dxz     :     0.015866
      dyz     :     0.016576
      dx2y2   :     0.015768
      dxy     :     0.013966

 11 B s       :     2.849023  s :     2.849023
      pz      :     0.713609  p :     2.114828
      px      :     0.649593
      py      :     0.751626
      dz2     :     0.013872  d :     0.067949
      dxz     :     0.015030
      dyz     :     0.011356
      dx2y2   :     0.012904
      dxy     :     0.014786



                     *******************************
                     * LOEWDIN POPULATION ANALYSIS *
                     *******************************

----------------------
LOEWDIN ATOMIC CHARGES
----------------------
   0 B :   -0.039790
   1 B :    0.038154
   2 B :   -0.038944
   3 B :    0.038066
   4 B :    0.036665
   5 B :   -0.034146
   6 B :    0.037856
   7 B :    0.036735
   8 B :   -0.034150
   9 B :   -0.039703
  10 B :    0.038226
  11 B :   -0.038968

-------------------------------
LOEWDIN REDUCED ORBITAL CHARGES
-------------------------------
  0 B s       :     2.668067  s :     2.668067
      pz      :     0.725756  p :     2.199117
      px      :     0.730678
      py      :     0.742682
      dz2     :     0.040149  d :     0.172606
      dxz     :     0.038141
      dyz     :     0.027606
      dx2y2   :     0.036062
      dxy     :     0.030648

  1 B s       :     2.571158  s :     2.571158
      pz      :     0.783203  p :     2.204243
      px      :     0.745892
      py      :     0.675149
      dz2     :     0.030077  d :     0.186446
      dxz     :     0.045045
      dyz     :     0.044602
      dx2y2   :     0.038660
      dxy     :     0.028062

  2 B s       :     2.667516  s :     2.667516
      pz      :     0.729107  p :     2.198788
      px      :     0.721789
      py      :     0.747892
      dz2     :     0.038117  d :     0.172640
      dxz     :     0.032232
      dyz     :     0.033214
      dx2y2   :     0.028476
      dxy     :     0.040600

  3 B s       :     2.570892  s :     2.570892
      pz      :     0.678715  p :     2.204553
      px      :     0.781520
      py      :     0.744318
      dz2     :     0.037565  d :     0.186490
      dxz     :     0.039381
      dyz     :     0.028392
      dx2y2   :     0.046441
      dxy     :     0.034710

  4 B s       :     2.573083  s :     2.573083
      pz      :     0.782234  p :     2.204116
      px      :     0.745472
      py      :     0.676411
      dz2     :     0.030198  d :     0.186136
      dxz     :     0.044639
      dyz     :     0.044540
      dx2y2   :     0.038764
      dxy     :     0.027996

  5 B s       :     2.661039  s :     2.661039
      pz      :     0.730179  p :     2.199576
      px      :     0.717695
      py      :     0.751702
      dz2     :     0.038207  d :     0.173531
      dxz     :     0.032726
      dyz     :     0.033278
      dx2y2   :     0.028396
      dxy     :     0.040924

  6 B s       :     2.570664  s :     2.570664
      pz      :     0.678781  p :     2.204836
      px      :     0.781684
      py      :     0.744372
      dz2     :     0.037595  d :     0.186644
      dxz     :     0.039431
      dyz     :     0.028416
      dx2y2   :     0.046470
      dxy     :     0.034732

  7 B s       :     2.573054  s :     2.573054
      pz      :     0.782203  p :     2.204143
      px      :     0.745426
      py      :     0.676514
      dz2     :     0.030156  d :     0.186067
      dxz     :     0.044630
      dyz     :     0.044516
      dx2y2   :     0.038769
      dxy     :     0.027997

  8 B s       :     2.661629  s :     2.661629
      pz      :     0.730027  p :     2.199139
      px      :     0.717916
      py      :     0.751196
      dz2     :     0.038178  d :     0.173382
      dxz     :     0.032713
      dyz     :     0.033220
      dx2y2   :     0.028378
      dxy     :     0.040894

  9 B s       :     2.668639  s :     2.668639
      pz      :     0.725821  p :     2.198671
      px      :     0.730168
      py      :     0.742682
      dz2     :     0.040122  d :     0.172393
      dxz     :     0.038086
      dyz     :     0.027574
      dx2y2   :     0.036011
      dxy     :     0.030600

 10 B s       :     2.571043  s :     2.571043
      pz      :     0.783260  p :     2.204267
      px      :     0.745937
      py      :     0.675070
      dz2     :     0.030065  d :     0.186464
      dxz     :     0.045066
      dyz     :     0.044588
      dx2y2   :     0.038674
      dxy     :     0.028071

 11 B s       :     2.668241  s :     2.668241
      pz      :     0.729103  p :     2.198360
      px      :     0.721737
      py      :     0.747520
      dz2     :     0.038088  d :     0.172368
      dxz     :     0.032211
      dyz     :     0.033146
      dx2y2   :     0.028404
      dxy     :     0.040518



                      *****************************
                      * MAYER POPULATION ANALYSIS *
                      *****************************

  NA   - Mulliken gross atomic population
  ZA   - Total nuclear charge
  QA   - Mulliken gross atomic charge
  VA   - Mayer's total valence
  BVA  - Mayer's bonded valence
  FA   - Mayer's free valence

  ATOM       NA         ZA         QA         VA         BVA        FA
  0 B      5.0306     5.0000    -0.0306     3.7527     3.7527     0.0000
  1 B      4.9710     5.0000     0.0290     4.3386     4.3386     0.0000
  2 B      5.0303     5.0000    -0.0303     3.7568     3.7568    -0.0000
  3 B      4.9700     5.0000     0.0300     4.3360     4.3360     0.0000
  4 B      4.9718     5.0000     0.0282     4.3276     4.3276     0.0000
  5 B      5.0244     5.0000    -0.0244     3.7937     3.7937    -0.0000
  6 B      4.9700     5.0000     0.0300     4.3379     4.3379     0.0000
  7 B      4.9723     5.0000     0.0277     4.3283     4.3283    -0.0000
  8 B      5.0253     5.0000    -0.0253     3.7937     3.7937    -0.0000
  9 B      5.0319     5.0000    -0.0319     3.7522     3.7522    -0.0000
 10 B      4.9706     5.0000     0.0294     4.3381     4.3381     0.0000
 11 B      5.0318     5.0000    -0.0318     3.7554     3.7554     0.0000

  Mayer bond orders larger than 0.100000
B(  0-B ,  1-B ) :   0.5578 B(  0-B ,  2-B ) :   0.2400 B(  0-B ,  3-B ) :   0.1747 
B(  0-B ,  4-B ) :   0.1624 B(  0-B ,  5-B ) :   0.2481 B(  0-B ,  6-B ) :   0.8282 
B(  0-B ,  7-B ) :   0.5355 B(  0-B ,  8-B ) :   0.2585 B(  0-B ,  9-B ) :   0.3206 
B(  0-B , 10-B ) :   0.1606 B(  0-B , 11-B ) :   0.2664 B(  1-B ,  2-B ) :   0.8330 
B(  1-B ,  3-B ) :   0.7028 B(  1-B ,  4-B ) :   0.1458 B(  1-B ,  5-B ) :   0.1601 
B(  1-B ,  6-B ) :   0.1451 B(  1-B ,  7-B ) :   0.7087 B(  1-B ,  8-B ) :   0.5602 
B(  1-B ,  9-B ) :   0.1606 B(  1-B , 10-B ) :   0.1893 B(  1-B , 11-B ) :   0.1753 
B(  2-B ,  3-B ) :   0.1595 B(  2-B ,  4-B ) :   0.5342 B(  2-B ,  5-B ) :   0.2584 
B(  2-B ,  6-B ) :   0.5609 B(  2-B ,  7-B ) :   0.1618 B(  2-B ,  8-B ) :   0.2492 
B(  2-B ,  9-B ) :   0.2653 B(  2-B , 10-B ) :   0.1756 B(  2-B , 11-B ) :   0.3187 
B(  3-B ,  4-B ) :   0.1457 B(  3-B ,  5-B ) :   0.1587 B(  3-B ,  6-B ) :   0.1896 
B(  3-B ,  7-B ) :   0.7085 B(  3-B ,  8-B ) :   0.5639 B(  3-B ,  9-B ) :   0.8297 
B(  3-B , 10-B ) :   0.1442 B(  3-B , 11-B ) :   0.5586 B(  4-B ,  5-B ) :   0.1799 
B(  4-B ,  6-B ) :   0.7086 B(  4-B ,  7-B ) :   0.1885 B(  4-B ,  8-B ) :   0.8579 
B(  4-B ,  9-B ) :   0.5347 B(  4-B , 10-B ) :   0.7088 B(  4-B , 11-B ) :   0.1612 
B(  5-B ,  6-B ) :   0.5622 B(  5-B ,  7-B ) :   0.8568 B(  5-B ,  8-B ) :   0.2999 
B(  5-B ,  9-B ) :   0.2586 B(  5-B , 10-B ) :   0.5622 B(  5-B , 11-B ) :   0.2488 
B(  6-B ,  7-B ) :   0.1464 B(  6-B ,  8-B ) :   0.1596 B(  6-B ,  9-B ) :   0.1749 
B(  6-B , 10-B ) :   0.7022 B(  6-B , 11-B ) :   0.1602 B(  7-B ,  8-B ) :   0.1792 
B(  7-B ,  9-B ) :   0.1614 B(  7-B , 10-B ) :   0.1460 B(  7-B , 11-B ) :   0.5354 
B(  8-B ,  9-B ) :   0.2473 B(  8-B , 10-B ) :   0.1595 B(  8-B , 11-B ) :   0.2586 
B(  9-B , 10-B ) :   0.5583 B(  9-B , 11-B ) :   0.2408 B( 10-B , 11-B ) :   0.8313 


-------
TIMINGS
-------

Total SCF time: 0 days 0 hours 0 min 5 sec 

Total time                  ....       5.970 sec
Sum of individual times     ....       5.403 sec  ( 90.5%)

SCF preparation             ....       0.495 sec  (  8.3%)
Fock matrix formation       ....       4.201 sec  ( 70.4%)
  Startup                   ....       0.009 sec  (  0.2% of F)
  Split-RI-J                ....       1.322 sec  ( 31.5% of F)
  XC integration            ....       3.019 sec  ( 71.9% of F)
    XC Preparation          ....       0.000 sec  (  0.0% of XC)
    Basis function eval.    ....       0.694 sec  ( 23.0% of XC)
    Density eval.           ....       0.604 sec  ( 20.0% of XC)
    XC-Functional eval.     ....       0.066 sec  (  2.2% of XC)
    XC-Potential eval.      ....       0.708 sec  ( 23.5% of XC)
Diagonalization             ....       0.000 sec  (  0.0%)
Density matrix formation    ....       0.056 sec  (  0.9%)
Total Energy calculation    ....       0.066 sec  (  1.1%)
Population analysis         ....       0.100 sec  (  1.7%)
Orbital Transformation      ....       0.017 sec  (  0.3%)
Orbital Orthonormalization  ....       0.000 sec  (  0.0%)
DIIS solution               ....       0.030 sec  (  0.5%)
SOSCF solution              ....       0.438 sec  (  7.3%)
Finished LeanSCF after   6.1 sec

Maximum memory used throughout the entire LEANSCF-calculation: 11.4 MB


-------------------------------------------------------------------------------
                          DFT DISPERSION CORRECTION                            
                                                                               
                              DFTD3 V3.1  Rev 1                                
                          USING Becke-Johnson damping                          
-------------------------------------------------------------------------------
The BP86 functional is recognized
Active option DFTDOPT                   ...         4   

molecular C6(AA) [au] = 4036.536167 


            DFT-D V3
 parameters
 s6 scaling factor         :     1.0000 
 a1 scaling factor         :     0.3946 
 s8 scaling factor         :     3.2822 
 a2 scaling factor         :     4.8516 
 ad hoc parameters k1-k3   :    16.0000     1.3333    -4.0000 

 Edisp/kcal,au: -23.924863802949  -0.038126693285 
 E6   /kcal   :  -6.812593580 
 E8   /kcal   : -17.112270223 
 % E8         :  71.525047599 

-------------------------   ----------------
Dispersion correction           -0.038126693
-------------------------   ----------------


-------------------------   --------------------
FINAL SINGLE POINT ENERGY      -297.634947913890
-------------------------   --------------------

                                *** OPTIMIZATION RUN DONE ***



           ************************************************************
           *        Program running with 8 parallel MPI-processes     *
           *              working on a common directory               *
           ************************************************************

------------------------------------------------------------------------------
                              ORCA PROPERTY CALCULATIONS
------------------------------------------------------------------------------

GBWName                                 ... icosahedron_nn1.70_perturb1.gbw
Number of atoms                         ...     12
Number of basis functions               ...    168
Max core memory                         ...   2500 MB

Electric properties:
Dipole moment                           ... YES
Quadrupole moment                       ...  NO
Static polarizability (Dipole/Dipole)   ...  NO
Static polarizability (Dipole/Quad.)    ...  NO
Static polarizability (Quad./Quad.)     ...  NO
Static polarizability (Velocity)        ...  NO
Static hyperpolarizability              ...  NO

Atomic electric properties:
Dipole moment                           ...  NO
Quadrupole moment                       ...  NO
Static polarizability                   ...  NO

Choice of electric origin               ... Center of mass
Position of electric origin             ...    -0.032320     0.026208     0.053300

General magnetic properties:
Magnetizability                         ...  NO

EPR properties:
g-Tensor (aka g-matrix)                 ...  NO
Zero-Field splitting spin-orbit         ...  NO
Zero-field splitting spin-spin          ...  NO
Hyperfine couplings                     ...  NO (   0 nuclei)
Quadrupole couplings                    ...  NO (   0 nuclei)
Contact density                         ...  NO (   0 nuclei)

NMR properties:
Chemical shifts                         ...  NO (   0 nuclei)
Spin-rotation constants                 ...  NO (   0 nuclei)
Spin-spin couplings                     ...  NO (   0 nuclei,    0 pairs)

Choice of magnetic origin               ... GIAO
Position of magnetic origin             ...     0.000000     0.000000     0.000000

Properties with geometric perturbations:
SCF Hessian                             ...  NO
IR spectrum                             ...  NO
VCD spectrum                            ...  NO
X-ray spectroscopy properties:
SCF XES/XAS/RIXS spectra                ...  NO

SCF SOC stabilization energy            ...  NO
Diagonal Born-Oppenheimer correction    ...  NO

-------------
DIPOLE MOMENT
-------------

Method             : SCF
Type of density    : Electron Density
Multiplicity       :   1
Irrep              :   0
Energy             :  -297.5968212206049088 Eh
Basis              : AO
                                X                 Y                 Z
Electronic contribution:      0.000764307      -0.000446299      -0.002903747
Nuclear contribution   :     -0.000000000       0.000000000      -0.000000000
                        -----------------------------------------
Total Dipole Moment    :      0.000764307      -0.000446299      -0.002903747
                        -----------------------------------------
Magnitude (a.u.)       :      0.003035637
Magnitude (Debye)      :      0.007715977



--------------------
Rotational spectrum 
--------------------
 
Rotational constants in cm-1:             0.074549             0.074373             0.070835 
Rotational constants in MHz :          2234.912689          2229.656715          2123.590020 

Dipole components along the rotational axes: 
x,y,z [a.u.] :    -0.002044     0.002128    -0.000713 
x,y,z [Debye]:    -0.005196     0.005409    -0.001812 

 

Dipole moment calculation done in   0.0 sec 

Maximum memory used throughout the entire PROP-calculation: 9.0 MB

--------------------------------
SUGGESTED CITATIONS FOR THIS RUN
--------------------------------

Below you find a list of papers that are relevant to this ORCA run
We neither can nor want to force you to cite these papers, but we appreciate if you do
You receive ORCA, which is the product of decades of hard work by many enthusiastic individuals, for free
The only thing we kindly ask in return is that you cite our papers,
We deeply appreciate it, if you show your appreciation for ORCA by not just citing the generic ORCA reference.

Please note that relegating all ORCA citations to the supporting information does *not* help us.
SI sections are not indexed - citations you put there will not count into any citation statistics
But we need these citations in order to attract the funding resources that allow us to do what we are doing

Therefore, if you are a happy ORCA user, please consider citing a few of the papers listed below in the main body of your paper

In addition to the list printed below, the program has created the file icosahedron_nn1.70_perturb1.bibtex that contains the list in bibtex format
You can import this file easily into all common literature databanks and citation aid programs

It goes without saying that in many instances, there are alternative algorithms to achieve similar
results as the ones you have gotten from ORCA. It is, of course, also the case that in some instances
ORCA just re-implements algorithms worked out by others. We are fully aware of that and we are also
fully appreciative of our colleagues work. Hence this citation list should not be read as indicating
that the listed papers, which are focused on our own work, are the only ones worth citing. It simply
meant to make it easier for users to cite ORCA specific papers. It is not a substitute for doing your
own literature research and citing the relevant literature in a scientifically appropriate manner.

List of essential papers. We consider these as the minimum necessary citations

  1. Neese, F.
     Software update: the ORCA program system, version 6.0
     WIRES Comput. Molec. Sci. 2025 15(1), e70019
     doi.org/10.1002/wcms.70019

List of papers to cite with high priority. The work reported in these papers was absolutely
necessary for this run to complete.
Our perspective: the developers of density functionals and basis sets usually get cited in chemistry papers
Good! But without the algorithms to do something with them, the functionals or basis sets would not do anything.
Hence, in our opinion, the algorithm design and method developments papers are equally worthy of getting cited

  1. Neese, F.
     An improvement of the resolution of the identity approximation for the formation of the Coulomb matrix
     J. Comp. Chem. 2003 24(14), 1740-1747
     doi.org/10.1002/jcc.10318
  2. Grimme, S.; Antony, J.; Ehrlich, S.; Krieg, H.
     A consistent and accurate ab initio parametrization of density functional dispersion correction (DFT-D) for the 94 elements H-Pu
     J. Chem. Phys. 2010 132 , 154104
     doi.org/10.1063/1.3382344
  3. Grimme, S.; Ehrlich, S.; Goerigk, L.
     Effect of the damping function in dispersion corrected density functional theory
     J. Comput. Chem. 2011 32(7), 1456-1465
     doi.org/10.1002/jcc.21759
  4. Neese, F.
     The SHARK Integral Generation and Digestion System
     J. Comp. Chem. 2022 44(3), 381
     doi.org/10.1002/jcc.26942

List of suggested additional citations. These are papers that are important in the 'surrounding' of 
of this run, or papers that preceded the highly important papers. If you like your results we are grateful for a citation.

  1. Neese, F.
     The ORCA program system
     WIRES Comput. Molec. Sci. 2012 2(1), 73-78
     doi.org/10.1002/wcms.81
  2. Neese, F.
     Software update: the ORCA program system, version 4.0
     WIRES Comput. Molec. Sci. 2018 8(1), 1-6
     doi.org/10.1002/wcms.1327
  3. Neese, F.; Wennmohs, F.; Becker, U.; Riplinger, C.
     The ORCA quantum chemistry program package
     J. Chem. Phys. 2020 152(22), 224108
     doi.org/10.1063/5.0004608
  4. Neese, F.
     Software update: The ORCA program system—Version 5.0
     WIRES Comput. Molec. Sci. 2022 12(1), e1606
     doi.org/10.1002/wcms.1606

List of optional additional citations

  1. Neese, F.
     Approximate second-order SCF convergence for spin unrestricted wavefunctions
     Chem. Phys. Lett. 2000 325(1-3), 93-98
     doi.org/10.1016/s0009-2614(00)00662-x

Timings for individual modules:

Sum of individual times          ...      395.294 sec (=   6.588 min)
Startup calculation              ...       47.951 sec (=   0.799 min)  12.1 %
SCF iterations                   ...      279.033 sec (=   4.651 min)  70.6 %
Property calculations            ...        0.917 sec (=   0.015 min)   0.2 %
SCF Gradient evaluation          ...       66.419 sec (=   1.107 min)  16.8 %
Geometry relaxation              ...        0.974 sec (=   0.016 min)   0.2 %
                             ****ORCA TERMINATED NORMALLY****
TOTAL RUN TIME: 0 days 0 hours 6 minutes 58 seconds 707 msec
