
                                 *****************
                                 * O   R   C   A *
                                 *****************

                                            #,                                       
                                            ###                                      
                                            ####                                     
                                            #####                                    
                                            ######                                   
                                           ########,                                 
                                     ,,################,,,,,                         
                               ,,#################################,,                 
                          ,,##########################################,,             
                       ,#########################################, ''#####,          
                    ,#############################################,,   '####,        
                  ,##################################################,,,,####,       
                ,###########''''           ''''###############################       
              ,#####''   ,,,,##########,,,,          '''####'''          '####       
            ,##' ,,,,###########################,,,                        '##       
           ' ,,###''''                  '''############,,,                           
         ,,##''                                '''############,,,,        ,,,,,,###''
      ,#''                                            '''#######################'''  
     '                                                          ''''####''''         
             ,#######,   #######,   ,#######,      ##                                
            ,#'     '#,  ##    ##  ,#'     '#,    #''#        ,####,    ,#,          
            ##       ##  ##   ,#'  ##            #'  '#       #'       ,# #          
            ##       ##  #######   ##           ,######,      #####,      #          
            '#,     ,#'  ##    ##  '#,     ,#' ,#      #,     #,   #      #          
             '#######'   ##     ##  '#######'  #'      '#     '####' #    #          



                #########################################################
                #                        -***-                          #
                #          Department of theory and spectroscopy        #
                #                                                       #
                #                      Frank Neese                      #
                #                                                       #
                #     Directorship, Architecture, Infrastructure        #
                #                    SHARK, DRIVERS                     #
                #        Core code/Algorithms in most modules           #
                #                                                       #
                #        Max Planck Institute fuer Kohlenforschung      #
                #                Kaiser Wilhelm Platz 1                 #
                #                 D-45470 Muelheim/Ruhr                 #
                #                      Germany                          #
                #                                                       #
                #                  All rights reserved                  #
                #                        -***-                          #
                #########################################################


                         Program Version 6.1.1  -  RELEASE   -
                                (GIT: $487d211c$)
                          ($2025-11-21 10:33:24 +0100$)
                                                                         
                                  - NO-DMRG VERSION -                    
                                                                         


 With contributions from (in alphabetic order):
[Max-Planck-Institut fuer Kohlenforschung]                               
  Daniel Aravena         : Magnetic Suceptibility                        
  Michael Atanasov       : Ab Initio Ligand Field Theory (pilot matlab implementation)
  Alexander A. Auer      : GIAO ZORA, VPT2 properties, NMR spectrum      
  Ute Becker             : All parallelization in ORCA, NUMFREQ, NUMCALC 
  Giovanni Bistoni       : ED, misc. LED, open-shell LED, HFLD           
  Dmytro Bykov           : pre 5.0 version of the SCF Hessian            
  Marcos Casanova-Páez   : Triplet and SCS-CIS(D). UHF-(DLPNO)-IP/EA/STEOM-CCSD. UHF-CVS-IP/STEOM-CCSD   
  Vijay G. Chilkuri      : MRCI spin determinant printing, contributions to CSF-ICE 
  Pauline Colinet        : FMM embedding                                 
  Dipayan Datta          : RHF DLPNO-CCSD density                        
  Achintya Kumar Dutta   : EOM-CC, STEOM-CC                              
  Nicolas Foglia         : Exact transition moments, OPA infrastructure, MCD improvements    
  Dmitry Ganyushin       : Spin-Orbit,Spin-Spin,Magnetic field MRCI      
  Miquel Garcia-Rates    : C-PCM and meta-GGA Hessian, CCSD/C-PCM, Gaussian charge scheme 
  Tiago L. C. Gouveia    : GS-ROHF, GS-ROCIS                             
  Yang Guo               : DLPNO-NEVPT2, F12-NEVPT2, CIM, IAO-localization        
  Andreas Hansen         : Spin unrestricted coupled pair/coupled cluster methods 
  Ingolf Harden          : AUTO-CI MPn and infrastructure                
  Benjamin Helmich-Paris : MC-RPA, TRAH-(SCF,CASSCF), AVAS, COSX integrals, SCF dyn. polar., MC-PDFT, srDFT 
  Lee Huntington         : MR-EOM, pCC                                   
  Robert Izsak           : Overlap fitted RIJCOSX, COSX-SCS-MP3, EOM     
  Riya Kayal             : Wick's Theorem for AUTO-CI, AUTO-CI UHF-CCSDT 
  Emily Kempfer          : AUTO-CI RHF CISDT and CCSDT, approximate NEVPT4
  Christian Kollmar      : KDIIS, OOCD, Brueckner-CCSD(T), CCSD density, CASPT2, CASPT2-K, improved NEVPT2 
  Axel Koslowski         : Symmetry handling                             
  Simone Kossmann        : meta-GGA functionals, TD-DFT gradient, OOMP2, (MP2 Hessian; deprecated post 5.0) 
  Lucas Lang             : DCDCAS, Hyperfine gauge corrections, ICE-SOC+SSC
  Marvin Lechner         : AUTO-CI (C++ implementation), FIC-MRCC        
  Spencer Leger          : CASSCF response                               
  Dagmar Lenk            : GEPOL surface, SMD, ORCA-2-JSON               
  Dimitrios Liakos       : Extrapolation schemes; Compound Job, Property file
  Dimitrios Manganas     : Further ROCIS development; embedding schemes. LFT, Crystal Embedding 
  Dimitrios Pantazis     : SARC Basis sets                               
  Anastasios Papadopoulos: AUTO-CI, single reference methods and gradients 
  Taras Petrenko         : pre 6.0 DFT Hessian and TD-DFT gradient,  ECA, NRVS 
  Petra Pikulova         : Analytic Raman intensities                    
  Peter Pinski           : DLPNO-MP2, DLPNO-MP2 Gradient                 
  Shashank Vittal Rao    : ES-AILFT, MagRelax                            
  Christoph Reimann      : Effective Core Potentials                     
  Marius Retegan         : Local ZFS, SOC                                
  Christoph Riplinger    : Optimizer, TS searches, QM/MM, DLPNO-CCSD(T), (RO)-DLPNO pert. Triples 
  Michael Roemelt        : Original ROCIS implementation, recursive CI coupling coefficients
  Masaaki Saitow         : Open-shell DLPNO-CCSD energy and density      
  Barbara Sandhoefer     : DKH picture change effects                    
  Yorick L. A. Schmerwitz: GMF and freeze-and-release deltaSCF, NEB S-IDPP initial path                    
  Kantharuban Sivalingam : CASSCF convergence/infrastructure, NEVPT2, NEVPT3, NEVPT4(SD), FIC-MRCI and CEPA variants
  Bernardo de Souza      : ESD, SOC TD-DFT                               
  Georgi L. Stoychev     : AutoAux, RI-MP2 NMR, DLPNO-MP2 response, X2C  
  Van Anh Tran           : RI-MP2 g-tensors                              
  Willem Van den Heuvel  : Paramagnetic NMR                              
  Zikuan Wang            : NOTCH, Electric field optimization            
  Frank Wennmohs         : Technical directorship and infrastructure     
  Hang Xu                : AUTO-CI-Response properties                   
                                                                         
[FACCTs GmbH]                                                            
  Markus Bursch, Nicolas Foglia, Miquel Garcia-Rates, Ingolf Harden, Hagen Neugebauer, Anastasios Papadopoulos, 
  Christoph Riplinger, Bernardo de Souza, Georgi L. Stoychev                                                    
                                                                 
  APM, various basis sets, CI-OPT, improved COSX, DLPNO-Multilevel,           
  DOCKER, DRACO, updates on ESD, Fragmentator, GOAT, IRC, LR-CPCM, L-BFGS, MBIS, meta-GGA TD-DFT gradient, ML-optimized integration grids, 
  MM, NACMEs, nearIR, NEB, NEB-TS, NL-DFT gradient (VV10), 2- and 3-layer-ONIOM, interface openCOSMO-RS, QMMM,   
  Crystal-QMMM, RESP, rigid body optimization, SF, symmetry and pop. for TD-DFT, various functionals, SOLVATOR                                   
                                                                         
[Other institutions]                                                     
  V. Asgeirsson          : NEB                                           
  Christoph Bannwarth    : sTDA-DFT, sTD-DFT, PBEh-3c, B97-3c, D3        
  Giovanni Bistoni       : ETS/NOCV, ADLD/ADEX, COVALED                  
  Martin Brehm           : Molecular dynamics                            
  Ronald Cardenas        : ETS/NOCV                                      
  Martina Colucci        : COVALED                                       
  Sebastian Ehlert       : rSCAN, r2SCAN, r2SCAN-3c, D4, dhf basis sets  
  Marvin Friede          : D4 for Fr, Ra, Ac-Lr                          
  Lars Goerigk           : TD-DFT with DH, B97 family of functionals     
  Stefan Grimme          : VdW corrections, initial TS optimization, DFT functionals, gCP, sTDA/sTD-DF 
  Waldemar Hujo          : DFT-NL                                        
  H. Jonsson             : NEB                                           
  Holger Kruse           : gCP                                           
  Marcel Mueller         : wB97X-3c, vDZP basis set                      
  Hagen Neugebauer       : wr2SCAN, Native XTB                           
  Gianluca Regni         : ADLD/ADEX                                     
  Tobias Risthaus        : pre 6.0 range-separated hybrid DFT and stability analysis
  Lukas Wittmann         : regularized MP2, r2SCAN double-hybrids, wr2SCAN        
                                                                         
We gratefully acknowledge several colleagues who have allowed us to      
interface, adapt or use parts of their codes:                            
  Ed Valeev, F. Pavosevic, A. Kumar             : LibInt (2-el integral package), F12 methods 
  Garnet Chan, S. Sharma, J. Yang, R. Olivares  : DMRG                   
  Ulf Ekstrom                                   : XCFun DFT Library      
  Mihaly Kallay                                 : mrcc  (arbitrary order and MRCC methods)
  Frank Weinhold                                : gennbo (NPA and NBO analysis)           
  Simon Mueller                                 : openCOSMO-RS                            
  Christopher J. Cramer and Donald G. Truhlar   : smd solvation model                     
  S Lehtola, MJT Oliveira, MAL Marques          : LibXC Library                           
  Liviu Ungur et al                             : ANISO software                          


 Your calculation uses the libint2 library for the computation of 2-el integrals
 For citations please refer to: http://libint.valeyev.net

 Your ORCA version has been built with support for libXC version: 7.0.0
 For citations please refer to: https://libxc.gitlab.io

 This ORCA versions uses:
   CBLAS   interface :  Fast vector & matrix operations
   LAPACKE interface :  Fast linear algebra routines
   SCALAPACK package :  Parallel linear algebra routines
   Shared memory     :  Shared parallel matrices
   BLAS/LAPACK       :  OpenBLAS 0.3.29  USE64BITINT DYNAMIC_ARCH NO_AFFINITY Zen SINGLE_THREADED
        Core in use  :  Zen
   Copyright (c) 2011-2014, The OpenBLAS Project


  ***********************************
  * Starting time: Thu Apr 23 18:17:52 2026
  * Host name:     vmi3233575
  * Process ID:    1393442
  * Working dir.:  /root/b12_scan/jobs/icosahedron_nn3.00
  ***********************************

NOTE: MaxCore=2500 MB was set to SCF,MP2,MDCI,CIPSI,MRCI,RASCI and CIS
      => If you want to overwrite this, your respective input block should be placed after the MaxCore statement
Your calculation utilizes the atom-pairwise dispersion correction
with the Becke-Johnson damping scheme (D3BJ)


================================================================================

----- Orbital basis set information -----
Your calculation utilizes the basis: def2-SVP
   F. Weigend and R. Ahlrichs, Phys. Chem. Chem. Phys. 7, 3297 (2005).

----- AuxJ basis set information -----
Your calculation utilizes the auxiliary basis: def2/J
   H-Rn: F. Weigend, Phys. Chem. Chem. Phys. 8, 1057 (2006).
   Fr-Lr: K. Eichkorn, F. Weigend, O. Treutler, R. Ahlrichs; Theor. Chem. Acc. 97, 119 (1997).

================================================================================
                                        WARNINGS
                       Please study these warnings very carefully!
================================================================================


WARNING: Geometry Optimization
  ===> : Switching off AutoStart
         For restart on a previous wavefunction, please use MOREAD

================================================================================
                                       INPUT FILE
================================================================================
NAME = icosahedron_nn3.00.inp
|  1> ! BP86 def2-SVP def2/J RI Opt TightSCF D3BJ
|  2> ! SlowConv
|  3> 
|  4> %pal nprocs 8 end
|  5> %maxcore 2500
|  6> 
|  7> %geom
|  8>   MaxIter 300
|  9> end
| 10> 
| 11> * xyz 0 1
| 12> B      0.00000000     -1.50000000     -2.42705098
| 13> B     -1.50000000     -2.42705098      0.00000000
| 14> B     -2.42705098      0.00000000     -1.50000000
| 15> B      0.00000000     -1.50000000      2.42705098
| 16> B     -1.50000000      2.42705098      0.00000000
| 17> B      2.42705098      0.00000000     -1.50000000
| 18> B      0.00000000      1.50000000     -2.42705098
| 19> B      1.50000000     -2.42705098      0.00000000
| 20> B     -2.42705098      0.00000000      1.50000000
| 21> B      0.00000000      1.50000000      2.42705098
| 22> B      1.50000000      2.42705098      0.00000000
| 23> B      2.42705098      0.00000000      1.50000000
| 24> *
| 25> 
| 26>                          ****END OF INPUT****
================================================================================

                       *****************************
                       * Geometry Optimization Run *
                       *****************************

Geometry optimization settings:
Update method            Update   .... BFGS
Choice of coordinates    CoordSys .... (2022) Redundant Internals
Initial Hessian          InHess   .... Almloef's Model
Max. no of cycles        MaxIter  .... 300

Convergence Tolerances:
Energy Change            TolE     ....  5.0000e-06 Eh
Max. Gradient            TolMAXG  ....  3.0000e-04 Eh/bohr
RMS Gradient             TolRMSG  ....  1.0000e-04 Eh/bohr
Max. Displacement        TolMAXD  ....  4.0000e-03 bohr
RMS Displacement         TolRMSD  ....  2.0000e-03 bohr
Strict Convergence                .... False

------------------------------------------------------------------------------
                        ORCA OPTIMIZATION COORDINATE SETUP
------------------------------------------------------------------------------

The optimization will be done in redundant internal coordinates (2022)
Making redundant internal coordinates   ...  (2022 redundants) done
Evaluating the initial hessian          ...  (Almloef) done
Evaluating the coordinates              ...  done
Calculating the B-matrix                .... done
Calculating the G-matrix                .... done
The number of degrees of freedom        ....  390

    -----------------------------------------------------------------
                    Redundant Internal Coordinates


    -----------------------------------------------------------------
         Definition                    Initial Value    Approx d2E/dq
    -----------------------------------------------------------------
      1. B(B   1,B   0)                  3.0000         0.010000   
      2. B(B   2,B   0)                  3.0000         0.010000   
      3. B(B   2,B   1)                  3.0000         0.010000   
      4. B(B   3,B   1)                  3.0000         0.010000   
      5. B(B   4,B   2)                  3.0000         0.010000   
      6. B(B   5,B   0)                  3.0000         0.010000   
      7. B(B   6,B   2)                  3.0000         0.010000   
      8. B(B   6,B   0)                  3.0000         0.010000   
      9. B(B   6,B   5)                  3.0000         0.010000   
     10. B(B   6,B   4)                  3.0000         0.010000   
     11. B(B   7,B   5)                  3.0000         0.010000   
     12. B(B   7,B   1)                  3.0000         0.010000   
     13. B(B   7,B   0)                  3.0000         0.010000   
     14. B(B   7,B   3)                  3.0000         0.010000   
     15. B(B   8,B   4)                  3.0000         0.010000   
     16. B(B   8,B   2)                  3.0000         0.010000   
     17. B(B   8,B   3)                  3.0000         0.010000   
     18. B(B   8,B   1)                  3.0000         0.010000   
     19. B(B   9,B   3)                  3.0000         0.010000   
     20. B(B   9,B   8)                  3.0000         0.010000   
     21. B(B   9,B   4)                  3.0000         0.010000   
     22. B(B  10,B   4)                  3.0000         0.010000   
     23. B(B  10,B   9)                  3.0000         0.010000   
     24. B(B  10,B   6)                  3.0000         0.010000   
     25. B(B  10,B   5)                  3.0000         0.010000   
     26. B(B  11,B  10)                  3.0000         0.010000   
     27. B(B  11,B   9)                  3.0000         0.010000   
     28. B(B  11,B   5)                  3.0000         0.010000   
     29. B(B  11,B   7)                  3.0000         0.010000   
     30. B(B  11,B   3)                  3.0000         0.010000   
     31. A(B   5,B   0,B   6)           60.0000         0.117373   
     32. A(B   1,B   0,B   2)           60.0000         0.117373   
     33. A(B   1,B   0,B   5)          108.0000         0.117373   
     34. A(B   1,B   0,B   7)           60.0000         0.117373   
     35. A(B   2,B   0,B   5)          108.0000         0.117373   
     36. A(B   2,B   0,B   6)           60.0000         0.117373   
     37. A(B   1,B   0,B   6)          108.0000         0.117373   
     38. A(B   2,B   0,B   7)          108.0000         0.117373   
     39. A(B   5,B   0,B   7)           60.0000         0.117373   
     40. A(B   6,B   0,B   7)          108.0000         0.117373   
     41. A(B   3,B   1,B   8)           60.0000         0.117373   
     42. A(B   7,B   1,B   8)          108.0000         0.117373   
     43. A(B   3,B   1,B   7)           60.0000         0.117373   
     44. A(B   2,B   1,B   3)          108.0000         0.117373   
     45. A(B   0,B   1,B   8)          108.0000         0.117373   
     46. A(B   2,B   1,B   8)           60.0000         0.117373   
     47. A(B   2,B   1,B   7)          108.0000         0.117373   
     48. A(B   0,B   1,B   3)          108.0000         0.117373   
     49. A(B   0,B   1,B   2)           60.0000         0.117373   
     50. A(B   0,B   1,B   7)           60.0000         0.117373   
     51. A(B   0,B   2,B   8)          108.0000         0.117373   
     52. A(B   0,B   2,B   1)           60.0000         0.117373   
     53. A(B   6,B   2,B   8)          108.0000         0.117373   
     54. A(B   1,B   2,B   4)          108.0000         0.117373   
     55. A(B   4,B   2,B   6)           60.0000         0.117373   
     56. A(B   1,B   2,B   6)          108.0000         0.117373   
     57. A(B   4,B   2,B   8)           60.0000         0.117373   
     58. A(B   0,B   2,B   4)          108.0000         0.117373   
     59. A(B   1,B   2,B   8)           60.0000         0.117373   
     60. A(B   0,B   2,B   6)           60.0000         0.117373   
     61. A(B   8,B   3,B  11)          108.0000         0.117373   
     62. A(B   8,B   3,B   9)           60.0000         0.117373   
     63. A(B   7,B   3,B   8)          108.0000         0.117373   
     64. A(B   1,B   3,B   8)           60.0000         0.117373   
     65. A(B   7,B   3,B   9)          108.0000         0.117373   
     66. A(B   1,B   3,B   7)           60.0000         0.117373   
     67. A(B   1,B   3,B  11)          108.0000         0.117373   
     68. A(B   7,B   3,B  11)           60.0000         0.117373   
     69. A(B   9,B   3,B  11)           60.0000         0.117373   
     70. A(B   1,B   3,B   9)          108.0000         0.117373   
     71. A(B   9,B   4,B  10)           60.0000         0.117373   
     72. A(B   6,B   4,B  10)           60.0000         0.117373   
     73. A(B   2,B   4,B  10)          108.0000         0.117373   
     74. A(B   2,B   4,B   6)           60.0000         0.117373   
     75. A(B   6,B   4,B   8)          108.0000         0.117373   
     76. A(B   8,B   4,B   9)           60.0000         0.117373   
     77. A(B   2,B   4,B   8)           60.0000         0.117373   
     78. A(B   6,B   4,B   9)          108.0000         0.117373   
     79. A(B   2,B   4,B   9)          108.0000         0.117373   
     80. A(B   8,B   4,B  10)          108.0000         0.117373   
     81. A(B   6,B   5,B  10)           60.0000         0.117373   
     82. A(B   0,B   5,B   6)           60.0000         0.117373   
     83. A(B  10,B   5,B  11)           60.0000         0.117373   
     84. A(B   7,B   5,B  10)          108.0000         0.117373   
     85. A(B   0,B   5,B  10)          108.0000         0.117373   
     86. A(B   0,B   5,B   7)           60.0000         0.117373   
     87. A(B   6,B   5,B   7)          108.0000         0.117373   
     88. A(B   6,B   5,B  11)          108.0000         0.117373   
     89. A(B   7,B   5,B  11)           60.0000         0.117373   
     90. A(B   0,B   5,B  11)          108.0000         0.117373   
     91. A(B   0,B   6,B   5)           60.0000         0.117373   
     92. A(B   0,B   6,B   2)           60.0000         0.117373   
     93. A(B   0,B   6,B   4)          108.0000         0.117373   
     94. A(B   4,B   6,B   5)          108.0000         0.117373   
     95. A(B   0,B   6,B  10)          108.0000         0.117373   
     96. A(B   5,B   6,B  10)           60.0000         0.117373   
     97. A(B   4,B   6,B  10)           60.0000         0.117373   
     98. A(B   2,B   6,B  10)          108.0000         0.117373   
     99. A(B   2,B   6,B   4)           60.0000         0.117373   
    100. A(B   2,B   6,B   5)          108.0000         0.117373   
    101. A(B   1,B   7,B  11)          108.0000         0.117373   
    102. A(B   5,B   7,B  11)           60.0000         0.117373   
    103. A(B   0,B   7,B  11)          108.0000         0.117373   
    104. A(B   0,B   7,B   3)          108.0000         0.117373   
    105. A(B   1,B   7,B   5)          108.0000         0.117373   
    106. A(B   0,B   7,B   1)           60.0000         0.117373   
    107. A(B   0,B   7,B   5)           60.0000         0.117373   
    108. A(B   1,B   7,B   3)           60.0000         0.117373   
    109. A(B   3,B   7,B   5)          108.0000         0.117373   
    110. A(B   3,B   7,B  11)           60.0000         0.117373   
    111. A(B   1,B   8,B   2)           60.0000         0.117373   
    112. A(B   1,B   8,B   3)           60.0000         0.117373   
    113. A(B   4,B   8,B   9)           60.0000         0.117373   
    114. A(B   2,B   8,B   9)          108.0000         0.117373   
    115. A(B   3,B   8,B   9)           60.0000         0.117373   
    116. A(B   1,B   8,B   9)          108.0000         0.117373   
    117. A(B   2,B   8,B   4)           60.0000         0.117373   
    118. A(B   3,B   8,B   4)          108.0000         0.117373   
    119. A(B   1,B   8,B   4)          108.0000         0.117373   
    120. A(B   2,B   8,B   3)          108.0000         0.117373   
    121. A(B   3,B   9,B  10)          108.0000         0.117373   
    122. A(B  10,B   9,B  11)           60.0000         0.117373   
    123. A(B   8,B   9,B  10)          108.0000         0.117373   
    124. A(B   4,B   9,B  10)           60.0000         0.117373   
    125. A(B   3,B   9,B  11)           60.0000         0.117373   
    126. A(B   3,B   9,B   8)           60.0000         0.117373   
    127. A(B   3,B   9,B   4)          108.0000         0.117373   
    128. A(B   8,B   9,B  11)          108.0000         0.117373   
    129. A(B   4,B   9,B  11)          108.0000         0.117373   
    130. A(B   4,B   9,B   8)           60.0000         0.117373   
    131. A(B   4,B  10,B  11)          108.0000         0.117373   
    132. A(B   4,B  10,B   9)           60.0000         0.117373   
    133. A(B   4,B  10,B   6)           60.0000         0.117373   
    134. A(B   4,B  10,B   5)          108.0000         0.117373   
    135. A(B   9,B  10,B  11)           60.0000         0.117373   
    136. A(B   6,B  10,B  11)          108.0000         0.117373   
    137. A(B   5,B  10,B  11)           60.0000         0.117373   
    138. A(B   6,B  10,B   9)          108.0000         0.117373   
    139. A(B   5,B  10,B   9)          108.0000         0.117373   
    140. A(B   5,B  10,B   6)           60.0000         0.117373   
    141. A(B   9,B  11,B  10)           60.0000         0.117373   
    142. A(B   5,B  11,B  10)           60.0000         0.117373   
    143. A(B   7,B  11,B  10)          108.0000         0.117373   
    144. A(B   3,B  11,B  10)          108.0000         0.117373   
    145. A(B   5,B  11,B   9)          108.0000         0.117373   
    146. A(B   7,B  11,B   9)          108.0000         0.117373   
    147. A(B   3,B  11,B   9)           60.0000         0.117373   
    148. A(B   5,B  11,B   7)           60.0000         0.117373   
    149. A(B   3,B  11,B   5)          108.0000         0.117373   
    150. A(B   3,B  11,B   7)           60.0000         0.117373   
    151. D(B   3,B   1,B   0,B   5)     -0.0000         0.010000   
    152. D(B   2,B   1,B   0,B   5)    100.8123         0.010000   
    153. D(B   3,B   1,B   0,B   2)   -100.8123         0.010000   
    154. D(B   7,B   1,B   0,B   5)    -37.3774         0.010000   
    155. D(B   2,B   1,B   0,B   7)    138.1897         0.010000   
    156. D(B   7,B   1,B   0,B   6)   -100.8123         0.010000   
    157. D(B   7,B   1,B   0,B   2)   -138.1897         0.010000   
    158. D(B   2,B   1,B   0,B   6)     37.3774         0.010000   
    159. D(B   4,B   2,B   0,B   1)    100.8123         0.010000   
    160. D(B   0,B   2,B   1,B   3)    100.8123         0.010000   
    161. D(B   0,B   2,B   1,B   8)    138.1897         0.010000   
    162. D(B   1,B   2,B   0,B   7)    -37.3774         0.010000   
    163. D(B   8,B   2,B   1,B   7)   -100.8123         0.010000   
    164. D(B   8,B   2,B   1,B   0)   -138.1897         0.010000   
    165. D(B   8,B   2,B   0,B   7)     -0.0000         0.010000   
    166. D(B   1,B   2,B   0,B   6)   -138.1897         0.010000   
    167. D(B   1,B   2,B   0,B   5)   -100.8123         0.010000   
    168. D(B   4,B   2,B   1,B   7)    -63.4349         0.010000   
    169. D(B   0,B   2,B   1,B   7)     37.3774         0.010000   
    170. D(B   8,B   2,B   0,B   6)   -100.8123         0.010000   
    171. D(B   8,B   2,B   0,B   5)    -63.4349         0.010000   
    172. D(B   4,B   2,B   1,B   0)   -100.8123         0.010000   
    173. D(B   8,B   2,B   0,B   1)     37.3774         0.010000   
    174. D(B   8,B   2,B   1,B   3)    -37.3774         0.010000   
    175. D(B   8,B   3,B   1,B   7)    138.1897         0.010000   
    176. D(B   7,B   3,B   1,B   2)   -100.8123         0.010000   
    177. D(B  11,B   3,B   1,B   0)      0.0000         0.010000   
    178. D(B   7,B   3,B   1,B   0)    -37.3774         0.010000   
    179. D(B   8,B   3,B   1,B   2)     37.3774         0.010000   
    180. D(B   7,B   3,B   1,B   8)   -138.1897         0.010000   
    181. D(B   8,B   3,B   1,B   0)    100.8123         0.010000   
    182. D(B  11,B   3,B   1,B   2)    -63.4349         0.010000   
    183. D(B   6,B   4,B   2,B   8)    138.1897         0.010000   
    184. D(B   9,B   4,B   2,B   1)      0.0000         0.010000   
    185. D(B   8,B   4,B   2,B   1)    -37.3774         0.010000   
    186. D(B   6,B   4,B   2,B   1)    100.8123         0.010000   
    187. D(B   8,B   4,B   2,B   0)   -100.8123         0.010000   
    188. D(B   9,B   4,B   2,B   0)    -63.4349         0.010000   
    189. D(B   8,B   4,B   2,B   6)   -138.1897         0.010000   
    190. D(B   6,B   4,B   2,B   0)     37.3774         0.010000   
    191. D(B   7,B   5,B   0,B   6)    138.1897         0.010000   
    192. D(B   6,B   5,B   0,B   2)    -37.3774         0.010000   
    193. D(B   6,B   5,B   0,B   7)   -138.1897         0.010000   
    194. D(B  11,B   5,B   0,B   1)      0.0000         0.010000   
    195. D(B  11,B   5,B   0,B   2)     63.4349         0.010000   
    196. D(B   6,B   5,B   0,B   1)   -100.8123         0.010000   
    197. D(B   7,B   5,B   0,B   2)    100.8123         0.010000   
    198. D(B   7,B   5,B   0,B   1)     37.3774         0.010000   
    199. D(B   5,B   6,B   2,B   1)      0.0000         0.010000   
    200. D(B   4,B   6,B   2,B   0)   -138.1897         0.010000   
    201. D(B   4,B   6,B   0,B   2)     37.3774         0.010000   
    202. D(B   2,B   6,B   0,B   7)   -100.8123         0.010000   
    203. D(B   5,B   6,B   2,B   0)    -37.3774         0.010000   
    204. D(B   5,B   6,B   0,B   1)    100.8123         0.010000   
    205. D(B   4,B   6,B   0,B   7)    -63.4349         0.010000   
    206. D(B   4,B   6,B   0,B   1)      0.0000         0.010000   
    207. D(B   4,B   6,B   2,B   1)   -100.8123         0.010000   
    208. D(B   2,B   6,B   0,B   5)   -138.1897         0.010000   
    209. D(B   5,B   6,B   2,B   8)     63.4349         0.010000   
    210. D(B   4,B   6,B   2,B   8)    -37.3774         0.010000   
    211. D(B   4,B   6,B   0,B   5)   -100.8123         0.010000   
    212. D(B   2,B   6,B   0,B   1)    -37.3774         0.010000   
    213. D(B   4,B   6,B   5,B  10)    -37.3774         0.010000   
    214. D(B   5,B   6,B   2,B   4)    100.8123         0.010000   
    215. D(B   4,B   6,B   5,B   7)     63.4349         0.010000   
    216. D(B   4,B   6,B   5,B   0)    100.8123         0.010000   
    217. D(B   2,B   6,B   5,B  10)   -100.8123         0.010000   
    218. D(B   2,B   6,B   5,B   7)     -0.0000         0.010000   
    219. D(B   2,B   6,B   5,B   0)     37.3774         0.010000   
    220. D(B   0,B   6,B   4,B   8)      0.0000         0.010000   
    221. D(B   2,B   6,B   4,B  10)    138.1897         0.010000   
    222. D(B   5,B   6,B   4,B   2)   -100.8123         0.010000   
    223. D(B   5,B   6,B   4,B   8)    -63.4349         0.010000   
    224. D(B   2,B   6,B   5,B  11)    -63.4349         0.010000   
    225. D(B   5,B   6,B   4,B  10)     37.3774         0.010000   
    226. D(B   2,B   6,B   4,B   9)    100.8123         0.010000   
    227. D(B   2,B   6,B   4,B   8)     37.3774         0.010000   
    228. D(B   4,B   6,B   5,B  11)     -0.0000         0.010000   
    229. D(B   0,B   6,B   2,B   1)     37.3774         0.010000   
    230. D(B   5,B   6,B   4,B   9)      0.0000         0.010000   
    231. D(B   3,B   7,B   5,B   0)   -100.8123         0.010000   
    232. D(B   1,B   7,B   5,B  11)    100.8123         0.010000   
    233. D(B   1,B   7,B   5,B   6)      0.0000         0.010000   
    234. D(B   1,B   7,B   5,B   0)    -37.3774         0.010000   
    235. D(B   0,B   7,B   5,B  11)    138.1897         0.010000   
    236. D(B   0,B   7,B   5,B   6)     37.3774         0.010000   
    237. D(B   5,B   7,B   3,B   9)     -0.0000         0.010000   
    238. D(B   5,B   7,B   3,B   8)     63.4349         0.010000   
    239. D(B   5,B   7,B   3,B   1)    100.8123         0.010000   
    240. D(B   0,B   7,B   3,B   9)    -63.4349         0.010000   
    241. D(B   0,B   7,B   3,B   1)     37.3774         0.010000   
    242. D(B   3,B   7,B   1,B   0)    138.1897         0.010000   
    243. D(B   0,B   7,B   1,B   8)   -100.8123         0.010000   
    244. D(B   5,B   7,B   1,B   2)      0.0000         0.010000   
    245. D(B   5,B   7,B   1,B   0)     37.3774         0.010000   
    246. D(B   5,B   7,B   1,B   8)    -63.4349         0.010000   
    247. D(B   0,B   7,B   1,B   3)   -138.1897         0.010000   
    248. D(B   0,B   7,B   1,B   2)    -37.3774         0.010000   
    249. D(B   3,B   7,B   0,B   2)      0.0000         0.010000   
    250. D(B   5,B   7,B   1,B   3)   -100.8123         0.010000   
    251. D(B   3,B   7,B   0,B   1)    -37.3774         0.010000   
    252. D(B   5,B   7,B   3,B  11)    -37.3774         0.010000   
    253. D(B   1,B   7,B   0,B   6)    100.8123         0.010000   
    254. D(B   0,B   7,B   3,B  11)   -100.8123         0.010000   
    255. D(B   1,B   7,B   0,B   5)    138.1897         0.010000   
    256. D(B   0,B   7,B   5,B  10)    100.8123         0.010000   
    257. D(B   1,B   7,B   0,B   2)     37.3774         0.010000   
    258. D(B   5,B   7,B   0,B   1)   -138.1897         0.010000   
    259. D(B   1,B   7,B   5,B  10)     63.4349         0.010000   
    260. D(B   5,B   7,B   0,B   2)   -100.8123         0.010000   
    261. D(B   0,B   7,B   3,B   8)     -0.0000         0.010000   
    262. D(B   5,B   7,B   0,B   6)    -37.3774         0.010000   
    263. D(B   3,B   8,B   2,B   4)   -100.8123         0.010000   
    264. D(B   3,B   8,B   2,B   0)      0.0000         0.010000   
    265. D(B   3,B   8,B   2,B   1)     37.3774         0.010000   
    266. D(B   1,B   8,B   2,B   4)   -138.1897         0.010000   
    267. D(B   1,B   8,B   2,B   0)    -37.3774         0.010000   
    268. D(B   4,B   8,B   1,B   2)    -37.3774         0.010000   
    269. D(B   2,B   8,B   1,B   0)     37.3774         0.010000   
    270. D(B   3,B   8,B   1,B   0)   -100.8123         0.010000   
    271. D(B   3,B   8,B   1,B   7)    -37.3774         0.010000   
    272. D(B   1,B   8,B   2,B   6)   -100.8123         0.010000   
    273. D(B   3,B   8,B   1,B   2)   -138.1897         0.010000   
    274. D(B   2,B   8,B   1,B   7)    100.8123         0.010000   
    275. D(B   4,B   8,B   1,B   0)      0.0000         0.010000   
    276. D(B   3,B   8,B   2,B   6)    -63.4349         0.010000   
    277. D(B   2,B   8,B   1,B   3)    138.1897         0.010000   
    278. D(B   3,B   8,B   4,B  10)     -0.0000         0.010000   
    279. D(B   3,B   8,B   4,B   6)     63.4349         0.010000   
    280. D(B   3,B   8,B   4,B   2)    100.8123         0.010000   
    281. D(B   1,B   8,B   4,B  10)    -63.4349         0.010000   
    282. D(B   1,B   8,B   4,B   6)     -0.0000         0.010000   
    283. D(B   1,B   8,B   4,B   2)     37.3774         0.010000   
    284. D(B   4,B   8,B   3,B   7)    -63.4349         0.010000   
    285. D(B   2,B   8,B   3,B   9)    100.8123         0.010000   
    286. D(B   2,B   8,B   3,B  11)     63.4349         0.010000   
    287. D(B   2,B   8,B   3,B   1)    -37.3774         0.010000   
    288. D(B   1,B   8,B   4,B   9)   -100.8123         0.010000   
    289. D(B   2,B   8,B   3,B   7)      0.0000         0.010000   
    290. D(B   1,B   8,B   3,B   9)    138.1897         0.010000   
    291. D(B   1,B   8,B   3,B  11)    100.8123         0.010000   
    292. D(B   3,B   8,B   4,B   9)    -37.3774         0.010000   
    293. D(B   1,B   8,B   3,B   7)     37.3774         0.010000   
    294. D(B   4,B   8,B   2,B   1)    138.1897         0.010000   
    295. D(B   3,B   9,B   8,B   1)    -37.3774         0.010000   
    296. D(B  11,B   9,B   8,B   2)    -63.4349         0.010000   
    297. D(B  11,B   9,B   8,B   3)     37.3774         0.010000   
    298. D(B  11,B   9,B   8,B   1)     -0.0000         0.010000   
    299. D(B   4,B   9,B   8,B   2)     37.3774         0.010000   
    300. D(B   4,B   9,B   8,B   3)    138.1897         0.010000   
    301. D(B   4,B   9,B   8,B   1)    100.8123         0.010000   
    302. D(B   3,B   9,B   4,B   8)     37.3774         0.010000   
    303. D(B  11,B   9,B   4,B  10)    -37.3774         0.010000   
    304. D(B  11,B   9,B   4,B   6)     -0.0000         0.010000   
    305. D(B  11,B   9,B   4,B   2)     63.4349         0.010000   
    306. D(B  11,B   9,B   4,B   8)    100.8123         0.010000   
    307. D(B   8,B   9,B   4,B  10)   -138.1897         0.010000   
    308. D(B   8,B   9,B   4,B   6)   -100.8123         0.010000   
    309. D(B   8,B   9,B   4,B   2)    -37.3774         0.010000   
    310. D(B  11,B   9,B   3,B   7)    -37.3774         0.010000   
    311. D(B   8,B   9,B   3,B  11)    138.1897         0.010000   
    312. D(B   8,B   9,B   3,B   1)     37.3774         0.010000   
    313. D(B   8,B   9,B   3,B   7)    100.8123         0.010000   
    314. D(B   4,B   9,B   3,B  11)    100.8123         0.010000   
    315. D(B   4,B   9,B   3,B   8)    -37.3774         0.010000   
    316. D(B  11,B   9,B   8,B   4)   -100.8123         0.010000   
    317. D(B   4,B   9,B   3,B   1)      0.0000         0.010000   
    318. D(B   4,B   9,B   3,B   7)     63.4349         0.010000   
    319. D(B   6,B  10,B   9,B   3)     63.4349         0.010000   
    320. D(B   6,B  10,B   9,B   8)      0.0000         0.010000   
    321. D(B   6,B  10,B   9,B   4)    -37.3774         0.010000   
    322. D(B   5,B  10,B   9,B   3)      0.0000         0.010000   
    323. D(B   5,B  10,B   9,B  11)     37.3774         0.010000   
    324. D(B   5,B  10,B   9,B   8)    -63.4349         0.010000   
    325. D(B   5,B  10,B   9,B   4)   -100.8123         0.010000   
    326. D(B  11,B  10,B   6,B   2)     63.4349         0.010000   
    327. D(B   9,B  10,B   6,B   5)   -100.8123         0.010000   
    328. D(B   9,B  10,B   6,B   4)     37.3774         0.010000   
    329. D(B   9,B  10,B   6,B   2)     -0.0000         0.010000   
    330. D(B   5,B  10,B   6,B   4)    138.1897         0.010000   
    331. D(B   5,B  10,B   6,B   2)    100.8123         0.010000   
    332. D(B  11,B  10,B   5,B   0)    100.8123         0.010000   
    333. D(B   9,B  10,B   5,B  11)    -37.3774         0.010000   
    334. D(B   9,B  10,B   5,B   6)    100.8123         0.010000   
    335. D(B   9,B  10,B   5,B   7)     -0.0000         0.010000   
    336. D(B   5,B  10,B   6,B   0)     37.3774         0.010000   
    337. D(B   9,B  10,B   5,B   0)     63.4349         0.010000   
    338. D(B   6,B  10,B   5,B  11)   -138.1897         0.010000   
    339. D(B   6,B  10,B   5,B   7)   -100.8123         0.010000   
    340. D(B   9,B  10,B   6,B   0)    -63.4349         0.010000   
    341. D(B   6,B  10,B   5,B   0)    -37.3774         0.010000   
    342. D(B   9,B  10,B   4,B   8)    -37.3774         0.010000   
    343. D(B   6,B  10,B   4,B   9)    138.1897         0.010000   
    344. D(B   6,B  10,B   4,B   2)     37.3774         0.010000   
    345. D(B   6,B  10,B   4,B   8)    100.8123         0.010000   
    346. D(B   5,B  10,B   4,B   9)    100.8123         0.010000   
    347. D(B   5,B  10,B   4,B   6)    -37.3774         0.010000   
    348. D(B   6,B  10,B   9,B  11)    100.8123         0.010000   
    349. D(B   5,B  10,B   4,B   2)      0.0000         0.010000   
    350. D(B   5,B  10,B   4,B   8)     63.4349         0.010000   
    351. D(B   7,B  11,B  10,B   4)     63.4349         0.010000   
    352. D(B   7,B  11,B  10,B   6)      0.0000         0.010000   
    353. D(B   7,B  11,B  10,B   5)    -37.3774         0.010000   
    354. D(B   3,B  11,B  10,B   4)      0.0000         0.010000   
    355. D(B   3,B  11,B  10,B   6)    -63.4349         0.010000   
    356. D(B   3,B  11,B  10,B   5)   -100.8123         0.010000   
    357. D(B   5,B  11,B   9,B   4)      0.0000         0.010000   
    358. D(B   7,B  11,B   9,B   3)     37.3774         0.010000   
    359. D(B   7,B  11,B   9,B   8)      0.0000         0.010000   
    360. D(B   7,B  11,B   9,B   4)    -63.4349         0.010000   
    361. D(B   3,B  11,B   9,B  10)   -138.1897         0.010000   
    362. D(B   3,B  11,B   9,B   8)    -37.3774         0.010000   
    363. D(B   3,B  11,B   9,B   4)   -100.8123         0.010000   
    364. D(B   9,B  11,B   7,B   5)    100.8123         0.010000   
    365. D(B   5,B  11,B   7,B   3)   -138.1897         0.010000   
    366. D(B   5,B  11,B   7,B   1)   -100.8123         0.010000   
    367. D(B   5,B  11,B   7,B   0)    -37.3774         0.010000   
    368. D(B   3,B  11,B   7,B   1)     37.3774         0.010000   
    369. D(B   3,B  11,B   7,B   5)    138.1897         0.010000   
    370. D(B   3,B  11,B   7,B   0)    100.8123         0.010000   
    371. D(B   9,B  11,B   5,B   0)    -63.4349         0.010000   
    372. D(B   9,B  11,B   7,B   0)     63.4349         0.010000   
    373. D(B   7,B  11,B   5,B  10)    138.1897         0.010000   
    374. D(B   7,B  11,B   5,B   6)    100.8123         0.010000   
    375. D(B   7,B  11,B   5,B   0)     37.3774         0.010000   
    376. D(B   3,B  11,B   5,B  10)    100.8123         0.010000   
    377. D(B   3,B  11,B   5,B   6)     63.4349         0.010000   
    378. D(B   3,B  11,B   5,B   7)    -37.3774         0.010000   
    379. D(B   3,B  11,B   5,B   0)      0.0000         0.010000   
    380. D(B   7,B  11,B   9,B  10)   -100.8123         0.010000   
    381. D(B   9,B  11,B   3,B   7)    138.1897         0.010000   
    382. D(B   5,B  11,B   3,B   9)   -100.8123         0.010000   
    383. D(B   5,B  11,B   3,B   8)    -63.4349         0.010000   
    384. D(B   3,B  11,B  10,B   9)     37.3774         0.010000   
    385. D(B   5,B  11,B   3,B   1)     -0.0000         0.010000   
    386. D(B   5,B  11,B   3,B   7)     37.3774         0.010000   
    387. D(B   7,B  11,B   3,B   9)   -138.1897         0.010000   
    388. D(B   7,B  11,B  10,B   9)    100.8123         0.010000   
    389. D(B   7,B  11,B   3,B   8)   -100.8123         0.010000   
    390. D(B   7,B  11,B   3,B   1)    -37.3774         0.010000   
    -----------------------------------------------------------------

Number of atoms                         .... 12
Number of degrees of freedom            .... 390


         *************************************************************
         *                GEOMETRY OPTIMIZATION CYCLE   1            *
         *************************************************************
---------------------------------
CARTESIAN COORDINATES (ANGSTROEM)
---------------------------------
  B      0.000000   -1.500000   -2.427051
  B     -1.500000   -2.427051    0.000000
  B     -2.427051    0.000000   -1.500000
  B      0.000000   -1.500000    2.427051
  B     -1.500000    2.427051    0.000000
  B      2.427051    0.000000   -1.500000
  B      0.000000    1.500000   -2.427051
  B      1.500000   -2.427051    0.000000
  B     -2.427051    0.000000    1.500000
  B      0.000000    1.500000    2.427051
  B      1.500000    2.427051    0.000000
  B      2.427051    0.000000    1.500000

----------------------------
CARTESIAN COORDINATES (A.U.)
----------------------------
  NO LB      ZA    FRAG     MASS         X           Y           Z
   0 B     5.0000    0    10.810    0.000000   -2.834589   -4.586462
   1 B     5.0000    0    10.810   -2.834589   -4.586462    0.000000
   2 B     5.0000    0    10.810   -4.586462    0.000000   -2.834589
   3 B     5.0000    0    10.810    0.000000   -2.834589    4.586462
   4 B     5.0000    0    10.810   -2.834589    4.586462    0.000000
   5 B     5.0000    0    10.810    4.586462    0.000000   -2.834589
   6 B     5.0000    0    10.810    0.000000    2.834589   -4.586462
   7 B     5.0000    0    10.810    2.834589   -4.586462    0.000000
   8 B     5.0000    0    10.810   -4.586462    0.000000    2.834589
   9 B     5.0000    0    10.810    0.000000    2.834589    4.586462
  10 B     5.0000    0    10.810    2.834589    4.586462    0.000000
  11 B     5.0000    0    10.810    4.586462    0.000000    2.834589

--------------------------------
INTERNAL COORDINATES (ANGSTROEM)
--------------------------------
 B      0   0   0     0.000000000000     0.00000000     0.00000000
 B      1   0   0     2.999999996506     0.00000000     0.00000000
 B      1   2   0     2.999999996506    60.00000000     0.00000000
 B      2   1   3     2.999999996506   107.99999998   259.18768297
 B      3   1   2     2.999999996506   108.00000005   100.81231691
 B      1   2   3     2.999999996506   108.00000005   100.81231691
 B      3   1   2     2.999999996506    60.00000008   138.18968508
 B      1   2   3     2.999999996506    60.00000008   138.18968508
 B      2   1   3     2.999999996506   108.00000005   322.62263180
 B      5   3   1     2.999999996506   108.00000005   296.56505129
 B      6   1   2     2.999999996506   108.00000005   296.56505129
 B      4   2   1     2.999999996506   108.00000005     0.00000000

---------------------------
INTERNAL COORDINATES (A.U.)
---------------------------
 B      0   0   0     0.000000000000     0.00000000     0.00000000
 B      1   0   0     5.669178395162     0.00000000     0.00000000
 B      1   2   0     5.669178395162    60.00000000     0.00000000
 B      2   1   3     5.669178395162   107.99999998   259.18768297
 B      3   1   2     5.669178395162   108.00000005   100.81231691
 B      1   2   3     5.669178395162   108.00000005   100.81231691
 B      3   1   2     5.669178395162    60.00000008   138.18968508
 B      1   2   3     5.669178395162    60.00000008   138.18968508
 B      2   1   3     5.669178395162   108.00000005   322.62263180
 B      5   3   1     5.669178395162   108.00000005   296.56505129
 B      6   1   2     5.669178395162   108.00000005   296.56505129
 B      4   2   1     5.669178395162   108.00000005     0.00000000

---------------------
BASIS SET INFORMATION
---------------------
There are 1 groups of distinct atoms

 Group   1 Type B   : 7s4p1d contracted to 3s2p1d pattern {511/31/1}

Atom   0B    basis set group =>   1
Atom   1B    basis set group =>   1
Atom   2B    basis set group =>   1
Atom   3B    basis set group =>   1
Atom   4B    basis set group =>   1
Atom   5B    basis set group =>   1
Atom   6B    basis set group =>   1
Atom   7B    basis set group =>   1
Atom   8B    basis set group =>   1
Atom   9B    basis set group =>   1
Atom  10B    basis set group =>   1
Atom  11B    basis set group =>   1
---------------------------------
AUXILIARY/J BASIS SET INFORMATION
---------------------------------
There are 1 groups of distinct atoms

 Group   1 Type B   : 12s5p4d2f1g contracted to 6s4p3d1f1g pattern {711111/2111/211/2/1}

Atom   0B    basis set group =>   1
Atom   1B    basis set group =>   1
Atom   2B    basis set group =>   1
Atom   3B    basis set group =>   1
Atom   4B    basis set group =>   1
Atom   5B    basis set group =>   1
Atom   6B    basis set group =>   1
Atom   7B    basis set group =>   1
Atom   8B    basis set group =>   1
Atom   9B    basis set group =>   1
Atom  10B    basis set group =>   1
Atom  11B    basis set group =>   1


           ************************************************************
           *        Program running with 8 parallel MPI-processes     *
           *              working on a common directory               *
           ************************************************************
------------------------------------------------------------------------------
                             ORCA STARTUP CALCULATIONS
                           -- RI-GTO INTEGRALS CHOSEN --
------------------------------------------------------------------------------
------------------------------------------------------------------------------
                   ___                                                        
                  /   \      - P O W E R E D   B Y -                         
                 /     \                                                     
                 |  |  |   _    _      __       _____    __    __             
                 |  |  |  | |  | |    /  \     |  _  \  |  |  /  |          
                  \  \/   | |  | |   /    \    | | | |  |  | /  /          
                 / \  \   | |__| |  /  /\  \   | |_| |  |  |/  /          
                |  |  |   |  __  | /  /__\  \  |    /   |      \           
                |  |  |   | |  | | |   __   |  |    \   |  |\   \          
                \     /   | |  | | |  |  |  |  | |\  \  |  | \   \       
                 \___/    |_|  |_| |__|  |__|  |_| \__\ |__|  \__/        
                                                                              
                      - O R C A' S   B I G   F R I E N D -                    
                                      &                                       
                       - I N T E G R A L  F E E D E R -                       
                                                                              
 v1 FN, 2020, v2 2021, v3 2022-2024                                           
------------------------------------------------------------------------------


----------------------
SHARK INTEGRAL PACKAGE
----------------------

Number of atoms                             ...     12
Number of basis functions                   ...    168
Number of shells                            ...     72
Maximum angular momentum                    ...      2
Integral batch strategy                     ... SHARK/LIBINT Hybrid
RI-J (if used) integral strategy            ... SPLIT-RIJ (Revised 2003 algorithm where possible)
Printlevel                                  ...      1
Contraction scheme used                     ... SEGMENTED contraction
Prescreening option                         ... SCHWARTZ
   Thresh                                   ... 2.500e-11
   Tcut                                     ... 2.500e-12
   Tpresel                                  ... 2.500e-12 
Coulomb Range Separation                    ... NOT USED
Exchange Range Separation                   ... NOT USED
Multipole approximations                    ... NOT USED
Finite Nucleus Model                        ... NOT USED
CABS basis                                  ... NOT available
Auxiliary Coulomb fitting basis             ... AVAILABLE
   # of basis functions in Aux-J            ...    588
   # of shells in Aux-J                     ...    180
   Maximum angular momentum in Aux-J        ...      4
Auxiliary J/K fitting basis                 ... NOT available
Auxiliary Correlation fitting basis         ... NOT available
Auxiliary 'external' fitting basis          ... NOT available

Checking pre-screening integrals            ... done (  0.0 sec) Dimension = 72
   => SHARK Basis and OBASIS are compatible. Storing Pre-screening
Shell pair information
Shell pair cut-off parameter TPreSel        ...   2.5e-12
Total number of shell pairs                 ...      2628
Shell pairs after pre-screening             ...      2466
Total number of primitive shell pairs       ...     10596
Primitive shell pairs kept                  ...      6666
          la=0 lb=0:    588 shell pairs
          la=1 lb=0:    852 shell pairs
          la=1 lb=1:    300 shell pairs
          la=2 lb=0:    360 shell pairs
          la=2 lb=1:    288 shell pairs
          la=2 lb=2:     78 shell pairs

Checking whether 4 symmetric matrices of dimension 168 fit in memory
:Max Core in MB      =   2500.00
 MB in use           =      6.59
 MB left             =   2493.41
 MB needed           =      0.43
 Data fit in memory  = YES
Calculating RI/J V-Matrix + Cholesky decomp.... done (  0.0 sec)
Calculating Nuclear repulsion               ... done (  0.0 sec) ENN=    227.966923599064 Eh

Diagonalization of the overlap matrix:
Smallest eigenvalue                        ... 2.025e-02
Time for diagonalization                   ...    0.003 sec
Threshold for overlap eigenvalues          ... 1.000e-07
Number of eigenvalues below threshold      ... 0
Time for construction of square roots      ...    0.009 sec
Total time needed                          ...    0.019 sec

-------------------
DFT GRID GENERATION
-------------------

General Integration Accuracy     IntAcc      ... 4.388
Radial Grid Type                 RadialGrid  ... OptM3 with GC (2021)
Angular Grid (max. ang.)         AngularGrid ... 4 (Lebedev-302)
Angular grid pruning method      GridPruning ... 4 (adaptive)
Weight generation scheme         WeightScheme... mBecke (2022)
Basis function cutoff            BFCut       ... 1.0000e-11
Integration weight cutoff        WCut        ... 1.0000e-14
Partially contracted basis set               ... off
Rotationally invariant grid construction     ... off
Angular grids for H and He will be reduced by one unit

Total number of grid points                  ...    72840
Total number of batches                      ...     1146
Average number of points per batch           ...       63
Average number of grid points per atom       ...     6070
Grids setup in   0.8 sec
Initializing property integral containers    ... done (  0.0 sec)

SHARK setup successfully completed in   1.0 seconds

Maximum memory used throughout the entire STARTUP-calculation: 19.8 MB


           ************************************************************
           *        Program running with 8 parallel MPI-processes     *
           *              working on a common directory               *
           ************************************************************
-------------------------------------------------------------------------------
                                 ORCA GUESS
                   Start orbitals & Density for SCF / CASSCF
-------------------------------------------------------------------------------

------------
SCF SETTINGS
------------
Hamiltonian:
 Density Functional     Method          .... DFT(GTOs)
 Exchange Functional    Exchange        .... B88
   X-Alpha parameter    XAlpha          ....  0.666667
   Becke's b parameter  XBeta           ....  0.004200
 Correlation Functional Correlation     .... P86
 LDA part of GGA corr.  LDAOpt          .... PW91-LDA
 Gradients option       PostSCFGGA      .... off
   NL short-range parameter             ....  4.400000
 RI-approximation to the Coulomb term is turned on
   Number of AuxJ basis functions       .... 588


General Settings:
 Integral files         IntName         .... icosahedron_nn3.00
 Hartree-Fock type      HFTyp           .... RHF
 Total Charge           Charge          ....    0
 Multiplicity           Mult            ....    1
 Number of Electrons    NEL             ....   60
 Basis Dimension        Dim             ....  168
 Nuclear Repulsion      ENuc            ....    227.9669235991 Eh

Convergence Acceleration:
 AO-DIIS                CNVDIIS         .... on
   Start iteration      DIISMaxIt       ....     0
   Startup error        DIISStart       ....  0.200000
   # of expansion vecs  DIISMaxEq       ....     5
   Bias factor          DIISBfac        ....   1.050
   Max. coefficient     DIISMaxC        ....  10.000
 MO-DIIS                CNVKDIIS        .... off
 Trust-Rad. Augm. Hess. CNVTRAH         .... auto
   Auto Start mean grad. ratio tolernc. ....  1.125000
   Auto Start start iteration           ....    50
   Auto Start num. interpolation iter.  ....    10
   Max. Number of Micro iterations      ....    24
   Max. Number of Macro iterations      .... Maxiter - #DIIS iter
   Number of Davidson start vectors     ....     2
   Converg. threshold    (grad. norm)   ....   1.000e-05
   Grad. Scal. Fac. for Micro threshold ....   0.100
   Minimum threshold for Micro iter.    ....   1.000e-02
   NR start threshold (gradient norm)   ....   1.000e-04
   Initial trust radius                 ....   0.400
   Minimum AH scaling param. (alpha)    ....   1.000
   Maximum AH scaling param. (alpha)    .... 1000.000
   Quad. conv. algorithm                .... NR
   White noise on init. David. guess    .... on
   Maximum white noise                  ....   0.010
   Pseudo random numbers                .... off
   Inactive MOs                         .... canonical
   Orbital update algorithm             .... Taylor
   Preconditioner                       .... Diag
   Full preconditioner red. dimension   ....   250
 SOSCF                 CNVSOSCF           .... on
   Start iteration     SOSCFMaxIt         ....   150
   Startup grad/error  SOSCFStart         ....  0.001000
   Hessian update      SOSCFHessUp        .... L-BFGS
   Autom. constraints  SOSCFAutoConstrain .... off
 Level Shifting         CNVShift        .... on
   Level shift para.    LevelShift      ....    0.2500
   Turn off err/grad.   ShiftErr        ....    0.0000
 Zerner damping         CNVZerner       .... off
 Static damping         CNVDamp         .... on
   Fraction old density DampFac         ....    0.8500
   Max. Damping (<1)    DampMax         ....    0.9800
   Min. Damping (>=0)   DampMin         ....    0.0000
   Turn off err/grad.   DampErr         ....    0.0300

SCF Procedure:
 Maximum # iterations   MaxIter         ....   125
 SCF integral mode      SCFMode         .... Direct
   Integral package                     .... SHARK and LIBINT hybrid scheme
 Reset frequency        DirectResetFreq ....    20
 Integral Threshold     Thresh          ....  2.500e-11 Eh
 Primitive CutOff       TCut            ....  2.500e-12 Eh

Convergence Tolerance:
 Convergence Check Mode ConvCheckMode   .... Total+1el-Energy
 Convergence forced     ConvForced      .... 0
 Energy Change          TolE            ....  1.000e-08 Eh
 1-El. energy change                    ....  1.000e-05 Eh
 Orbital Gradient       TolG            ....  1.000e-05
 Orbital Rotation angle TolX            ....  1.000e-05
 DIIS Error             TolErr          ....  5.000e-07

------------------------------
INITIAL GUESS: MODEL POTENTIAL
------------------------------
Loading Hartree-Fock densities                     ... done
Calculating cut-offs                               ... done
Initializing the effective Hamiltonian             ... done
Setting up the integral package (SHARK)            ... done
Starting the Coulomb interaction                   ... done (   0.0 sec)
Making the grid                                    ... done (   0.2 sec)
Mapping shells                                     ... done
Starting the XC term evaluation                    ... done (   0.0 sec)
  promolecular density results
     # of electrons  =     60.006249280
     EX              =    -44.305609416
     EC              =     -1.706430110
     EX+EC           =    -46.012039526
Transforming the Hamiltonian                       ... done (   0.0 sec)
Diagonalizing the Hamiltonian                      ... done (   0.0 sec)
Back transforming the eigenvectors                 ... done (   0.0 sec)
Now organizing SCF variables                       ... done
                      ------------------
                      INITIAL GUESS DONE (   0.3 sec)
                      ------------------
             **** ENERGY FILE WAS UPDATED (icosahedron_nn3.00.en.tmp) ****
Finished Guess after   1.0 sec
Maximum memory used throughout the entire GUESS-calculation: 9.3 MB


           ************************************************************
           *        Program running with 8 parallel MPI-processes     *
           *              working on a common directory               *
           ************************************************************

-------------------------------------------------------------------------------------------
                                      ORCA LEAN-SCF
                              memory conserving SCF solver
-------------------------------------------------------------------------------------------

----------------------------------------D-I-I-S--------------------------------------------
Iteration    Energy (Eh)           Delta-E    RMSDP     MaxDP     DIISErr   Damp  Time(sec)
-------------------------------------------------------------------------------------------
               ***  Starting incremental Fock matrix formation  ***
    1    -295.9905182592829647     0.00e+00  1.31e-03  2.17e-02  2.02e-02  0.850   0.5
Warning: op=0 Small HOMO/LUMO gap (  -0.020) - skipping pre-diagonalization
         Will do a full diagonalization
    2    -295.9936788417333560    -3.16e-03  1.65e-03  2.38e-02  1.54e-02  0.850   0.4
                               ***Turning on AO-DIIS***
    3    -295.9962198467050598    -2.54e-03  1.11e-03  1.13e-02  8.72e-03  0.850   0.7
    4    -295.9974107918130244    -1.19e-03  5.58e-03  4.19e-02  4.98e-03  0.000   0.3
    5    -295.9987489746117149    -1.34e-03  9.78e-04  1.10e-02  1.05e-02  0.000   0.3
    6    -296.0009950393964004    -2.25e-03  6.21e-04  5.39e-03  5.97e-03  0.000   0.3
    7    -296.0018110498418196    -8.16e-04  3.77e-04  2.80e-03  3.23e-03  0.000   0.3
    8    -296.0020808987389387    -2.70e-04  2.30e-04  1.56e-03  1.83e-03  0.000   0.4
    9    -296.0021699693764390    -8.91e-05  1.58e-04  1.71e-03  1.10e-03  0.000   0.3
                              *** Initializing SOSCF ***
---------------------------------------S-O-S-C-F--------------------------------------
Iteration    Energy (Eh)           Delta-E    RMSDP     MaxDP     MaxGrad    Time(sec)
--------------------------------------------------------------------------------------
   10    -296.0022027646197671    -3.28e-05  9.64e-05  8.24e-04  6.27e-04     0.5
               *** Restarting incremental Fock matrix formation ***
   11    -296.0022161270136962    -1.34e-05  2.49e-04  2.56e-03  6.72e-04     0.3
   12    -296.0022113634159382     4.76e-06  1.71e-04  2.54e-03  1.00e-03     0.4
   13    -296.0022294255642805    -1.81e-05  1.33e-04  8.43e-04  1.85e-04     0.5
   14    -296.0022344144061321    -4.99e-06  7.06e-04  2.25e-03  1.92e-04     0.6
   15    -296.0022487576509889    -1.43e-05  7.56e-04  2.39e-03  3.85e-04     1.2
   16    -296.0022590626837768    -1.03e-05  5.68e-04  1.75e-03  5.08e-04     0.7
   17    -296.0022730475769208    -1.40e-05  3.16e-03  9.46e-03  4.11e-04     0.3
   18    -296.0023084662091719    -3.54e-05  1.61e-03  5.16e-03  8.82e-04     0.3
   19    -296.0023812503571321    -7.28e-05  5.29e-03  1.89e-02  6.80e-04     0.3
   20    -296.0023983119514810    -1.71e-05  1.23e-03  4.37e-03  1.65e-03     0.3
   21    -296.0025076996006987    -1.09e-04  1.29e-03  5.00e-03  1.43e-03     0.3
   22    -296.0026147662445624    -1.07e-04  6.80e-04  2.89e-03  1.04e-03     0.3
   23    -296.0026195523219599    -4.79e-06  3.91e-03  1.44e-02  1.27e-03     0.3
   24    -296.0026359342196542    -1.64e-05  1.66e-03  5.78e-03  1.51e-03     0.8
   25    -296.0027115943249214    -7.57e-05  6.30e-04  2.47e-03  3.35e-04     0.4
   26    -296.0027292887188537    -1.77e-05  1.27e-03  5.06e-03  2.30e-04     0.4
   27    -296.0027426988044112    -1.34e-05  1.39e-03  5.73e-03  2.52e-04     0.3
   28    -296.0027460950488489    -3.40e-06  5.48e-04  2.07e-03  5.76e-04     0.3
   29    -296.0027494855688133    -3.39e-06  8.06e-04  3.35e-03  4.53e-04     0.3
   30    -296.0027553008489463    -5.82e-06  3.14e-04  1.29e-03  4.11e-04     0.3
               *** Restarting incremental Fock matrix formation ***
   31    -296.0027620488777416    -6.75e-06  1.77e-04  5.83e-04  1.28e-04     0.3
   32    -296.0027645727174672    -2.52e-06  2.85e-04  8.74e-04  1.23e-04     0.3
   33    -296.0027688949055005    -4.32e-06  8.63e-04  2.75e-03  1.21e-04     0.4
   34    -296.0027781685551531    -9.27e-06  1.00e-03  3.30e-03  1.47e-04     0.3
   35    -296.0027855333300408    -7.36e-06  6.12e-04  1.93e-03  2.75e-04     0.3
   36    -296.0027934532654967    -7.92e-06  6.05e-04  1.70e-03  1.96e-04     0.3
   37    -296.0027999819942011    -6.53e-06  3.26e-04  1.19e-03  9.54e-05     0.3
   38    -296.0028014888380881    -1.51e-06  1.61e-04  5.83e-04  9.10e-05     0.3
   39    -296.0028029057510253    -1.42e-06  7.53e-05  2.25e-04  5.83e-05     0.3
   40    -296.0028035144865157    -6.09e-07  1.35e-04  4.05e-04  4.30e-05     0.6
   41    -296.0028039724749647    -4.58e-07  1.18e-04  3.52e-04  4.14e-05     0.3
   42    -296.0028042804725033    -3.08e-07  6.56e-05  1.64e-04  3.88e-05     0.3
   43    -296.0028046722853219    -3.92e-07  2.98e-04  8.15e-04  3.22e-05     0.3
   44    -296.0028059526434276    -1.28e-06  4.53e-04  1.28e-03  6.33e-05     0.3
   45    -296.0028074732958316    -1.52e-06  9.37e-04  2.59e-03  1.14e-04     0.3
   46    -296.0028113642679841    -3.89e-06  4.57e-03  1.25e-02  1.90e-04     0.2
   47    -296.0028146280382657    -3.26e-06  1.91e-03  5.19e-03  5.70e-04     0.3
   48    -296.0028286093524343    -1.40e-05  1.18e-03  3.49e-03  2.44e-04     0.3
               *** Scaled step length from 0.317807 to 0.200000 ***
   49    -296.0028404191105551    -1.18e-05  6.20e-03  1.79e-02  2.03e-04     0.3
   50    -296.0028376108461430     2.81e-06  3.86e-03  1.06e-02  7.48e-04     0.3
               *** Restarting incremental Fock matrix formation ***

       ******************************************************************************
       ***                                                                        ***
       ***                               Auto-TRAH                                ***
       ***                               ---------                                ***
       *** the maximum gradient error decreased on average only by a factor   0.8 ***
       *** during the last  10 iterations                                         ***
       ***                                                                        ***
       ***               Leaving SCF to start the TRAH-SCF procedure              ***
       ***                                                                        ***
       ******************************************************************************

 --------------------------------------------------------------------------------------------
   Iter.        energy            ||Error||_2        Shift      TRadius  Mac/Mic        Rej.
 --------------------------------------------------------------------------------------------
    0       -296.002871775596     1.706177e-03                     0.400 (TRAH MAcro)   No
WARNING: 5 diagonal Hessian elements are negative!
WARNING : negative HOMO - LUMO gap : -0.003718
WARNING : negative HOMO - LUMO gap : -0.003718
    0     dE    -1.110827e-07     2.071273e-03    -2.2216e-07      0.002 (TRAH MIcro)
    0     dE    -1.999864e-07     1.895339e-03    -3.9997e-07      0.002 (TRAH MIcro)
    0     dE    -7.953834e-07     2.573755e-03    -1.5907e-06      0.004 (TRAH MIcro)
    0     dE    -3.383939e-06     3.106380e-03    -6.7666e-06      0.014 (TRAH MIcro)
    0     dE    -5.002856e-06     2.391375e-03    -1.0001e-05      0.021 (TRAH MIcro)
    0     dE    -6.217230e-06     1.810067e-03    -1.2425e-05      0.027 (TRAH MIcro)
    0     dE    -7.079419e-06     1.425592e-03    -1.4142e-05      0.034 (TRAH MIcro)
    0     dE    -7.811037e-06     1.299356e-03    -1.5594e-05      0.042 (TRAH MIcro)
    0     dE    -8.697544e-06     1.094617e-03    -1.7339e-05      0.057 (TRAH MIcro)
    0     dE    -8.933197e-06     5.467819e-04    -1.7800e-05      0.061 (TRAH MIcro)
    0     dE    -8.999928e-06     2.374547e-04    -1.7930e-05      0.062 (TRAH MIcro)
    0     dE    -9.021745e-06     2.895237e-04    -1.7973e-05      0.063 (TRAH MIcro)
    0     dE    -9.071096e-06     4.534951e-04    -1.8071e-05      0.063 (TRAH MIcro)
    0     dE    -9.432416e-06     1.359931e-03    -1.8786e-05      0.065 (TRAH MIcro)
    0     dE    -1.042923e-05     2.211663e-03    -2.0750e-05      0.072 (TRAH MIcro)
    0     dE    -1.213028e-05     1.642236e-03    -2.4079e-05      0.087 (TRAH MIcro)
    0     dE    -1.277914e-05     9.163428e-04    -2.5340e-05      0.093 (TRAH MIcro)
    0     dE    -1.290441e-05     4.533345e-04    -2.5582e-05      0.094 (TRAH MIcro)
    0     dE    -1.294474e-05     1.742884e-04    -2.5660e-05      0.095 (TRAH MIcro)
    0     dE    -1.295837e-05     1.822976e-04    -2.5686e-05      0.095 (TRAH MIcro)
    0     dE    -1.298401e-05     3.641299e-04    -2.5735e-05      0.095 (TRAH MIcro)
    0     dE    -1.304573e-05     5.590644e-04    -2.5854e-05      0.096 (TRAH MIcro)
    0     dE    -1.381343e-05     1.220647e-03    -2.7308e-05      0.108 (TRAH MIcro)
    1       -296.002881582989     4.163837e-03                     0.400 (TRAH MAcro)   No
WARNING: 6 diagonal Hessian elements are negative!
WARNING : negative HOMO - LUMO gap : -0.003590
WARNING : negative HOMO - LUMO gap : -0.003590
    1     dE    -2.193350e-06     2.385567e-03    -4.3867e-06      0.002 (TRAH MIcro)
    1     dE    -2.848777e-06     1.237924e-03    -5.6975e-06      0.002 (TRAH MIcro)
    1     dE    -2.994621e-06     9.573188e-04    -5.9892e-06      0.002 (TRAH MIcro)
    1     dE    -3.106947e-06     5.948165e-04    -6.2139e-06      0.002 (TRAH MIcro)
    1     dE    -3.145595e-06     4.054078e-04    -6.2912e-06      0.002 (TRAH MIcro)
    2       -296.002884729354     4.058373e-04                     0.480 (TRAH MAcro)   No
WARNING: 6 diagonal Hessian elements are negative!
WARNING : negative HOMO - LUMO gap : -0.003773
WARNING : negative HOMO - LUMO gap : -0.003773
    2     dE    -6.048683e-09     3.466183e-04    -1.2097e-08      0.000 (TRAH MIcro)
    2     dE    -1.524844e-08     2.675654e-04    -3.0497e-08      0.000 (TRAH MIcro)
    2     dE    -2.959517e-08     2.148011e-04    -5.9190e-08      0.000 (TRAH MIcro)
    2     dE    -3.369786e-08     1.951115e-04    -6.7396e-08      0.000 (TRAH MIcro)
    2     dE    -4.122839e-08     1.526816e-04    -8.2457e-08      0.000 (TRAH MIcro)
    2     dE    -4.378067e-08     1.358758e-04    -8.7561e-08      0.001 (TRAH MIcro)
    2     dE    -4.725293e-08     1.286571e-04    -9.4506e-08      0.001 (TRAH MIcro)
    2     dE    -5.801050e-08     1.962045e-04    -1.1602e-07      0.002 (TRAH MIcro)
    2     dE    -7.611318e-08     2.834537e-04    -1.5222e-07      0.004 (TRAH MIcro)
    2     dE    -1.046740e-07     1.470378e-04    -2.0934e-07      0.008 (TRAH MIcro)
    2     dE    -1.180096e-07     2.287085e-04    -2.3600e-07      0.008 (TRAH MIcro)
    2     dE    -1.525013e-07     4.009817e-04    -3.0498e-07      0.009 (TRAH MIcro)
    2     dE    -3.983688e-07     9.854460e-04    -7.9662e-07      0.012 (TRAH MIcro)
    2     dE    -8.432989e-07     8.106388e-04    -1.6857e-06      0.024 (TRAH MIcro)
    2     dE    -9.656836e-07     5.047822e-04    -1.9299e-06      0.027 (TRAH MIcro)
    2     dE    -1.013529e-06     1.742688e-04    -2.0254e-06      0.029 (TRAH MIcro)
    2     dE    -1.028293e-06     1.905687e-04    -2.0549e-06      0.029 (TRAH MIcro)
    2     dE    -1.068457e-06     4.707027e-04    -2.1350e-06      0.030 (TRAH MIcro)
    2     dE    -1.172969e-06     8.549634e-04    -2.3433e-06      0.034 (TRAH MIcro)
    2     dE    -3.107886e-06     4.989021e-03    -6.1553e-06      0.099 (TRAH MIcro)
    2     dE    -2.270359e-04     1.175416e-02    -1.8760e-03      0.480 (TRAH MIcro)
    2     dE    -2.325506e-04     1.071269e-02    -1.9246e-03      0.480 (TRAH MIcro)
    2     dE    -2.560371e-04     2.424324e-03    -2.1310e-03      0.480 (TRAH MIcro)
 ---------------------------------
          TRAH Step control 
 ---------------------------------
  predicted energy change =    -2.560371132162e-04
  actual energy  change   =     1.956393879425e-03
  energy change ratio     = -7.641056
  old trust radius        = 0.480000
  new trust radius        = 0.321600
  reject step?            = YES
    3       -296.000928335475     4.058373e-04                     0.322 (TRAH MAcro)  Yes
    4       -296.000928335475     1.043563e-01                     0.322 (TRAH MAcro)   No
WARNING: 4 diagonal Hessian elements are negative!
WARNING : negative HOMO - LUMO gap : -0.005116
WARNING : negative HOMO - LUMO gap : -0.005116
    4     dE    -1.519352e-03     4.952095e-02    -3.0329e-03      0.044 (TRAH MIcro)
    4     dE    -1.685669e-03     3.210286e-02    -3.3585e-03      0.062 (TRAH MIcro)
    4     dE    -1.719424e-03     2.930010e-02    -3.4262e-03      0.061 (TRAH MIcro)
    4     dE    -1.826172e-03     1.808045e-02    -3.6392e-03      0.060 (TRAH MIcro)
    4     dE    -1.851288e-03     1.388716e-02    -3.6898e-03      0.059 (TRAH MIcro)
    4     dE    -1.880053e-03     1.042133e-02    -3.7451e-03      0.063 (TRAH MIcro)
    4     dE    -1.906804e-03     5.036051e-03    -3.7938e-03      0.072 (TRAH MIcro)
    5       -296.002861444812     5.604205e-03                     0.386 (TRAH MAcro)   No
WARNING: 5 diagonal Hessian elements are negative!
WARNING : negative HOMO - LUMO gap : -0.002856
WARNING : negative HOMO - LUMO gap : -0.002856
    5     dE    -8.022101e-06     8.202700e-03    -1.6041e-05      0.013 (TRAH MIcro)
    5     dE    -1.869124e-05     8.976311e-03    -3.7355e-05      0.027 (TRAH MIcro)
    5     dE    -2.555979e-05     9.681134e-03    -5.1052e-05      0.036 (TRAH MIcro)
    5     dE    -4.072837e-05     1.013854e-02    -8.1164e-05      0.060 (TRAH MIcro)
    5     dE    -6.214579e-05     7.299581e-03    -1.2327e-04      0.091 (TRAH MIcro)
    5     dE    -7.215305e-05     4.428369e-03    -1.4253e-04      0.112 (TRAH MIcro)
    5     dE    -7.482966e-05     2.975513e-03    -1.4764e-04      0.117 (TRAH MIcro)
    5     dE    -7.683740e-05     1.382803e-03    -1.5143e-04      0.122 (TRAH MIcro)
    5     dE    -7.716105e-05     1.025542e-03    -1.5202e-04      0.123 (TRAH MIcro)
    5     dE    -7.749187e-05     4.935918e-04    -1.5262e-04      0.125 (TRAH MIcro)
    6       -296.002933516055     6.705955e-03                     0.463 (TRAH MAcro)   No
WARNING: 5 diagonal Hessian elements are negative!
WARNING : negative HOMO - LUMO gap : -0.002761
WARNING : negative HOMO - LUMO gap : -0.002761
    6     dE    -8.200698e-06     3.478288e-03    -1.6401e-05      0.007 (TRAH MIcro)
    6     dE    -9.180887e-06     2.844153e-03    -1.8360e-05      0.009 (TRAH MIcro)
    6     dE    -1.011311e-05     2.018015e-03    -2.0224e-05      0.010 (TRAH MIcro)
    6     dE    -1.111782e-05     1.764878e-03    -2.2232e-05      0.013 (TRAH MIcro)
    6     dE    -1.201161e-05     2.219584e-03    -2.4016e-05      0.018 (TRAH MIcro)
    6     dE    -1.286104e-05     2.001845e-03    -2.5709e-05      0.022 (TRAH MIcro)
    6     dE    -1.363798e-05     1.816667e-03    -2.7256e-05      0.027 (TRAH MIcro)
    6     dE    -1.470933e-05     1.308164e-03    -2.9382e-05      0.035 (TRAH MIcro)
    6     dE    -1.496652e-05     9.434425e-04    -2.9891e-05      0.037 (TRAH MIcro)
    6     dE    -1.510269e-05     7.271031e-04    -3.0160e-05      0.039 (TRAH MIcro)
    6     dE    -1.521895e-05     5.889210e-04    -3.0390e-05      0.040 (TRAH MIcro)
    7       -296.002949667492     9.766647e-04                     0.556 (TRAH MAcro)   No
WARNING: 5 diagonal Hessian elements are negative!
WARNING : negative HOMO - LUMO gap : -0.003013
WARNING : negative HOMO - LUMO gap : -0.003013
    7     dE    -2.283743e-07     1.399874e-03    -4.5675e-07      0.003 (TRAH MIcro)
    7     dE    -5.847393e-07     1.716190e-03    -1.1694e-06      0.006 (TRAH MIcro)
    7     dE    -1.008698e-06     1.733036e-03    -2.0172e-06      0.010 (TRAH MIcro)
    7     dE    -1.337892e-06     1.792663e-03    -2.6753e-06      0.014 (TRAH MIcro)
    7     dE    -1.822304e-06     1.788529e-03    -3.6433e-06      0.019 (TRAH MIcro)
    7     dE    -2.596906e-06     1.297463e-03    -5.1890e-06      0.030 (TRAH MIcro)
    7     dE    -2.886103e-06     7.673058e-04    -5.7655e-06      0.034 (TRAH MIcro)
    7     dE    -2.972606e-06     4.185415e-04    -5.9379e-06      0.035 (TRAH MIcro)
    7     dE    -3.000335e-06     3.298308e-04    -5.9931e-06      0.036 (TRAH MIcro)
    7     dE    -3.022160e-06     2.877143e-04    -6.0365e-06      0.036 (TRAH MIcro)
    7     dE    -3.036906e-06     3.222806e-04    -6.0659e-06      0.036 (TRAH MIcro)
    7     dE    -3.196373e-06     9.352076e-04    -6.3839e-06      0.037 (TRAH MIcro)
    7     dE    -4.132613e-06     1.641066e-03    -8.2486e-06      0.045 (TRAH MIcro)
    7     dE    -4.527955e-06     1.188294e-03    -9.0344e-06      0.049 (TRAH MIcro)
    7     dE    -4.730607e-06     4.616026e-04    -9.4368e-06      0.051 (TRAH MIcro)
    7     dE    -4.765135e-06     1.302548e-04    -9.5054e-06      0.051 (TRAH MIcro)
    7     dE    -4.768172e-06     1.142661e-04    -9.5114e-06      0.051 (TRAH MIcro)
    7     dE    -4.776555e-06     2.010500e-04    -9.5280e-06      0.051 (TRAH MIcro)
    7     dE    -4.903178e-06     8.151367e-04    -9.7769e-06      0.055 (TRAH MIcro)
    7     dE    -5.486919e-06     1.485246e-03    -1.0916e-05      0.072 (TRAH MIcro)
    7     dE    -6.226104e-06     9.281951e-04    -1.2337e-05      0.097 (TRAH MIcro)
    7     dE    -6.337153e-06     5.612359e-04    -1.2547e-05      0.101 (TRAH MIcro)
    7     dE    -6.388111e-06     1.898103e-04    -1.2644e-05      0.102 (TRAH MIcro)
    8       -296.002953740645     2.989669e-03                     0.556 (TRAH MAcro)   No
WARNING: 5 diagonal Hessian elements are negative!
WARNING : negative HOMO - LUMO gap : -0.002980
WARNING : negative HOMO - LUMO gap : -0.002980
    8     dE    -6.315774e-07     2.268896e-03    -1.2632e-06      0.002 (TRAH MIcro)
    8     dE    -1.109336e-06     1.629619e-03    -2.2187e-06      0.001 (TRAH MIcro)
    8     dE    -1.424608e-06     7.387562e-04    -2.8492e-06      0.001 (TRAH MIcro)
    8     dE    -1.549793e-06     2.621509e-04    -3.0996e-06      0.002 (TRAH MIcro)
    9       -296.002955290645     2.620730e-04                     0.667 (TRAH MAcro)   No
WARNING: 5 diagonal Hessian elements are negative!
WARNING : negative HOMO - LUMO gap : -0.003077
WARNING : negative HOMO - LUMO gap : -0.003077
    9     dE    -2.540642e-09     2.476322e-04    -5.0813e-09      0.000 (TRAH MIcro)
    9     dE    -7.569198e-09     2.100176e-04    -1.5138e-08      0.000 (TRAH MIcro)
    9     dE    -1.048904e-08     1.809648e-04    -2.0978e-08      0.000 (TRAH MIcro)
    9     dE    -1.241316e-08     1.779882e-04    -2.4826e-08      0.000 (TRAH MIcro)
    9     dE    -1.633880e-08     1.589705e-04    -3.2678e-08      0.000 (TRAH MIcro)
    9     dE    -2.416545e-08     1.064409e-04    -4.8331e-08      0.001 (TRAH MIcro)
    9     dE    -2.706137e-08     1.133170e-04    -5.4123e-08      0.001 (TRAH MIcro)
[...]
      px      :     0.801423
      py      :     0.733777
      dz2     :     0.012185  d :     0.074082
      dxz     :     0.015581
      dyz     :     0.016463
      dx2y2   :     0.015852
      dxy     :     0.014000

 11 B s       :     2.862114  s :     2.862114
      pz      :     0.709746  p :     2.104159
      px      :     0.646198
      py      :     0.748216
      dz2     :     0.013678  d :     0.067796
      dxz     :     0.014966
      dyz     :     0.011364
      dx2y2   :     0.012892
      dxy     :     0.014895



                     *******************************
                     * LOEWDIN POPULATION ANALYSIS *
                     *******************************

----------------------
LOEWDIN ATOMIC CHARGES
----------------------
   0 B :   -0.047311
   1 B :    0.039395
   2 B :   -0.043005
   3 B :    0.040128
   4 B :    0.031810
   5 B :   -0.021315
   6 B :    0.039873
   7 B :    0.031560
   8 B :   -0.021169
   9 B :   -0.046707
  10 B :    0.039272
  11 B :   -0.042530

-------------------------------
LOEWDIN REDUCED ORBITAL CHARGES
-------------------------------
  0 B s       :     2.677906  s :     2.677906
      pz      :     0.730341  p :     2.198109
      px      :     0.726185
      py      :     0.741584
      dz2     :     0.039777  d :     0.171296
      dxz     :     0.038426
      dyz     :     0.028199
      dx2y2   :     0.034674
      dxy     :     0.030220

  1 B s       :     2.569602  s :     2.569602
      pz      :     0.783413  p :     2.204323
      px      :     0.746108
      py      :     0.674801
      dz2     :     0.031140  d :     0.186680
      dxz     :     0.044237
      dyz     :     0.044313
      dx2y2   :     0.038967
      dxy     :     0.028023

  2 B s       :     2.672111  s :     2.672111
      pz      :     0.728579  p :     2.198822
      px      :     0.725454
      py      :     0.744788
      dz2     :     0.037668  d :     0.172072
      dxz     :     0.032021
      dyz     :     0.033257
      dx2y2   :     0.028342
      dxy     :     0.040784

  3 B s       :     2.568583  s :     2.568583
      pz      :     0.678763  p :     2.204481
      px      :     0.783874
      py      :     0.741844
      dz2     :     0.037645  d :     0.186809
      dxz     :     0.039515
      dyz     :     0.028499
      dx2y2   :     0.046091
      dxy     :     0.035058

  4 B s       :     2.579600  s :     2.579600
      pz      :     0.778687  p :     2.203541
      px      :     0.745089
      py      :     0.679765
      dz2     :     0.030263  d :     0.185048
      dxz     :     0.043620
      dyz     :     0.044185
      dx2y2   :     0.038955
      dxy     :     0.028026

  5 B s       :     2.644611  s :     2.644611
      pz      :     0.731066  p :     2.200897
      px      :     0.709704
      py      :     0.760128
      dz2     :     0.038967  d :     0.175807
      dxz     :     0.032637
      dyz     :     0.034481
      dx2y2   :     0.028702
      dxy     :     0.041020

  6 B s       :     2.568280  s :     2.568280
      pz      :     0.678786  p :     2.204753
      px      :     0.783890
      py      :     0.742077
      dz2     :     0.037682  d :     0.187094
      dxz     :     0.039557
      dyz     :     0.028559
      dx2y2   :     0.046165
      dxy     :     0.035130

  7 B s       :     2.579760  s :     2.579760
      pz      :     0.778503  p :     2.203623
      px      :     0.745226
      py      :     0.679894
      dz2     :     0.030275  d :     0.185057
      dxz     :     0.043634
      dyz     :     0.044164
      dx2y2   :     0.038970
      dxy     :     0.028014

  8 B s       :     2.644844  s :     2.644844
      pz      :     0.731246  p :     2.200684
      px      :     0.709744
      py      :     0.759694
      dz2     :     0.038949  d :     0.175641
      dxz     :     0.032609
      dyz     :     0.034443
      dx2y2   :     0.028658
      dxy     :     0.040982

  9 B s       :     2.678123  s :     2.678123
      pz      :     0.730127  p :     2.197464
      px      :     0.726201
      py      :     0.741135
      dz2     :     0.039768  d :     0.171120
      dxz     :     0.038386
      dyz     :     0.028167
      dx2y2   :     0.034627
      dxy     :     0.030172

 10 B s       :     2.569633  s :     2.569633
      pz      :     0.783186  p :     2.204432
      px      :     0.746296
      py      :     0.674951
      dz2     :     0.031131  d :     0.186664
      dxz     :     0.044231
      dyz     :     0.044296
      dx2y2   :     0.038980
      dxy     :     0.028026

 11 B s       :     2.672273  s :     2.672273
      pz      :     0.728320  p :     2.198272
      px      :     0.725305
      py      :     0.744647
      dz2     :     0.037649  d :     0.171985
      dxz     :     0.032000
      dyz     :     0.033257
      dx2y2   :     0.028316
      dxy     :     0.040762



                      *****************************
                      * MAYER POPULATION ANALYSIS *
                      *****************************

  NA   - Mulliken gross atomic population
  ZA   - Total nuclear charge
  QA   - Mulliken gross atomic charge
  VA   - Mayer's total valence
  BVA  - Mayer's bonded valence
  FA   - Mayer's free valence

  ATOM       NA         ZA         QA         VA         BVA        FA
  0 B      5.0398     5.0000    -0.0398     3.6953     3.6953     0.0000
  1 B      4.9706     5.0000     0.0294     4.3471     4.3471    -0.0000
  2 B      5.0347     5.0000    -0.0347     3.7293     3.7293     0.0000
  3 B      4.9698     5.0000     0.0302     4.3519     4.3519     0.0000
  4 B      4.9738     5.0000     0.0262     4.2880     4.2880    -0.0000
  5 B      5.0117     5.0000    -0.0117     3.8947     3.8947     0.0000
  6 B      4.9685     5.0000     0.0315     4.3512     4.3512    -0.0000
  7 B      4.9742     5.0000     0.0258     4.2881     4.2881     0.0000
  8 B      5.0123     5.0000    -0.0123     3.8937     3.8937     0.0000
  9 B      5.0394     5.0000    -0.0394     3.6937     3.6937     0.0000
 10 B      4.9711     5.0000     0.0289     4.3485     4.3485    -0.0000
 11 B      5.0341     5.0000    -0.0341     3.7282     3.7282     0.0000

  Mayer bond orders larger than 0.100000
B(  0-B ,  1-B ) :   0.5790 B(  0-B ,  2-B ) :   0.2252 B(  0-B ,  3-B ) :   0.1687 
B(  0-B ,  4-B ) :   0.1698 B(  0-B ,  5-B ) :   0.2603 B(  0-B ,  6-B ) :   0.7820 
B(  0-B ,  7-B ) :   0.4692 B(  0-B ,  8-B ) :   0.2481 B(  0-B ,  9-B ) :   0.3506 
B(  0-B , 10-B ) :   0.1600 B(  0-B , 11-B ) :   0.2824 B(  1-B ,  2-B ) :   0.8047 
B(  1-B ,  3-B ) :   0.6877 B(  1-B ,  4-B ) :   0.1486 B(  1-B ,  5-B ) :   0.1578 
B(  1-B ,  6-B ) :   0.1423 B(  1-B ,  7-B ) :   0.7152 B(  1-B ,  8-B ) :   0.5913 
B(  1-B ,  9-B ) :   0.1590 B(  1-B , 10-B ) :   0.1898 B(  1-B , 11-B ) :   0.1716 
B(  2-B ,  3-B ) :   0.1585 B(  2-B ,  4-B ) :   0.4743 B(  2-B ,  5-B ) :   0.2438 
B(  2-B ,  6-B ) :   0.6003 B(  2-B ,  7-B ) :   0.1685 B(  2-B ,  8-B ) :   0.2670 
B(  2-B ,  9-B ) :   0.2827 B(  2-B , 10-B ) :   0.1725 B(  2-B , 11-B ) :   0.3318 
B(  3-B ,  4-B ) :   0.1474 B(  3-B ,  5-B ) :   0.1578 B(  3-B ,  6-B ) :   0.1906 
B(  3-B ,  7-B ) :   0.7069 B(  3-B ,  8-B ) :   0.6094 B(  3-B ,  9-B ) :   0.7817 
B(  3-B , 10-B ) :   0.1418 B(  3-B , 11-B ) :   0.6015 B(  4-B ,  5-B ) :   0.1880 
B(  4-B ,  6-B ) :   0.7065 B(  4-B ,  7-B ) :   0.1869 B(  4-B ,  8-B ) :   0.9126 
B(  4-B ,  9-B ) :   0.4702 B(  4-B , 10-B ) :   0.7156 B(  4-B , 11-B ) :   0.1682 
B(  5-B ,  6-B ) :   0.6090 B(  5-B ,  7-B ) :   0.9142 B(  5-B ,  8-B ) :   0.2581 
B(  5-B ,  9-B ) :   0.2475 B(  5-B , 10-B ) :   0.5914 B(  5-B , 11-B ) :   0.2668 
B(  6-B ,  7-B ) :   0.1477 B(  6-B ,  8-B ) :   0.1576 B(  6-B ,  9-B ) :   0.1689 
B(  6-B , 10-B ) :   0.6877 B(  6-B , 11-B ) :   0.1586 B(  7-B ,  8-B ) :   0.1878 
B(  7-B ,  9-B ) :   0.1691 B(  7-B , 10-B ) :   0.1489 B(  7-B , 11-B ) :   0.4737 
B(  8-B ,  9-B ) :   0.2607 B(  8-B , 10-B ) :   0.1578 B(  8-B , 11-B ) :   0.2432 
B(  9-B , 10-B ) :   0.5779 B(  9-B , 11-B ) :   0.2253 B( 10-B , 11-B ) :   0.8051 


-------
TIMINGS
-------

Total SCF time: 0 days 0 hours 0 min 2 sec 

Total time                  ....       2.294 sec
Sum of individual times     ....       1.842 sec  ( 80.3%)

SCF preparation             ....       0.536 sec  ( 23.4%)
Fock matrix formation       ....       1.056 sec  ( 46.1%)
  Startup                   ....       0.010 sec  (  1.0% of F)
  Split-RI-J                ....       0.413 sec  ( 39.1% of F)
  XC integration            ....       0.891 sec  ( 84.3% of F)
    XC Preparation          ....       0.000 sec  (  0.0% of XC)
    Basis function eval.    ....       0.201 sec  ( 22.6% of XC)
    Density eval.           ....       0.177 sec  ( 19.9% of XC)
    XC-Functional eval.     ....       0.021 sec  (  2.4% of XC)
    XC-Potential eval.      ....       0.256 sec  ( 28.8% of XC)
Diagonalization             ....       0.000 sec  (  0.0%)
Density matrix formation    ....       0.012 sec  (  0.5%)
Total Energy calculation    ....       0.016 sec  (  0.7%)
Population analysis         ....       0.120 sec  (  5.2%)
Orbital Transformation      ....       0.026 sec  (  1.1%)
Orbital Orthonormalization  ....       0.000 sec  (  0.0%)
DIIS solution               ....       0.023 sec  (  1.0%)
SOSCF solution              ....       0.053 sec  (  2.3%)
Finished LeanSCF after   2.5 sec

Maximum memory used throughout the entire LEANSCF-calculation: 11.5 MB


-------------------------------------------------------------------------------
                          DFT DISPERSION CORRECTION                            
                                                                               
                              DFTD3 V3.1  Rev 1                                
                          USING Becke-Johnson damping                          
-------------------------------------------------------------------------------
The BP86 functional is recognized
Active option DFTDOPT                   ...         4   

molecular C6(AA) [au] = 4036.536168 


            DFT-D V3
 parameters
 s6 scaling factor         :     1.0000 
 a1 scaling factor         :     0.3946 
 s8 scaling factor         :     3.2822 
 a2 scaling factor         :     4.8516 
 ad hoc parameters k1-k3   :    16.0000     1.3333    -4.0000 

 Edisp/kcal,au: -23.924838481507  -0.038126652932 
 E6   /kcal   :  -6.812599750 
 E8   /kcal   : -17.112238731 
 % E8         :  71.524991671 

-------------------------   ----------------
Dispersion correction           -0.038126653
-------------------------   ----------------


-------------------------   --------------------
FINAL SINGLE POINT ENERGY      -297.634933984527
-------------------------   --------------------

                                *** OPTIMIZATION RUN DONE ***



           ************************************************************
           *        Program running with 8 parallel MPI-processes     *
           *              working on a common directory               *
           ************************************************************

------------------------------------------------------------------------------
                              ORCA PROPERTY CALCULATIONS
------------------------------------------------------------------------------

GBWName                                 ... icosahedron_nn3.00.gbw
Number of atoms                         ...     12
Number of basis functions               ...    168
Max core memory                         ...   2500 MB

Electric properties:
Dipole moment                           ... YES
Quadrupole moment                       ...  NO
Static polarizability (Dipole/Dipole)   ...  NO
Static polarizability (Dipole/Quad.)    ...  NO
Static polarizability (Quad./Quad.)     ...  NO
Static polarizability (Velocity)        ...  NO
Static hyperpolarizability              ...  NO

Atomic electric properties:
Dipole moment                           ...  NO
Quadrupole moment                       ...  NO
Static polarizability                   ...  NO

Choice of electric origin               ... Center of mass
Position of electric origin             ...    -0.000000     0.000000    -0.000000

General magnetic properties:
Magnetizability                         ...  NO

EPR properties:
g-Tensor (aka g-matrix)                 ...  NO
Zero-Field splitting spin-orbit         ...  NO
Zero-field splitting spin-spin          ...  NO
Hyperfine couplings                     ...  NO (   0 nuclei)
Quadrupole couplings                    ...  NO (   0 nuclei)
Contact density                         ...  NO (   0 nuclei)

NMR properties:
Chemical shifts                         ...  NO (   0 nuclei)
Spin-rotation constants                 ...  NO (   0 nuclei)
Spin-spin couplings                     ...  NO (   0 nuclei,    0 pairs)

Choice of magnetic origin               ... GIAO
Position of magnetic origin             ...     0.000000     0.000000     0.000000

Properties with geometric perturbations:
SCF Hessian                             ...  NO
IR spectrum                             ...  NO
VCD spectrum                            ...  NO
X-ray spectroscopy properties:
SCF XES/XAS/RIXS spectra                ...  NO

SCF SOC stabilization energy            ...  NO
Diagonal Born-Oppenheimer correction    ...  NO

-------------
DIPOLE MOMENT
-------------

Method             : SCF
Type of density    : Electron Density
Multiplicity       :   1
Irrep              :   0
Energy             :  -297.5968073315944480 Eh
Basis              : AO
                                X                 Y                 Z
Electronic contribution:     -0.000133111       0.001774542       0.002343913
Nuclear contribution   :     -0.000000000      -0.000000000      -0.000000000
                        -----------------------------------------
Total Dipole Moment    :     -0.000133111       0.001774542       0.002343913
                        -----------------------------------------
Magnitude (a.u.)       :      0.002942898
Magnitude (Debye)      :      0.007480252



--------------------
Rotational spectrum 
--------------------
 
Rotational constants in cm-1:             0.074847             0.074065             0.070851 
Rotational constants in MHz :          2243.847622          2220.416961          2124.053731 

Dipole components along the rotational axes: 
x,y,z [a.u.] :     0.002530    -0.001361    -0.000638 
x,y,z [Debye]:     0.006430    -0.003460    -0.001622 

 

Dipole moment calculation done in   0.0 sec 

Maximum memory used throughout the entire PROP-calculation: 9.2 MB

--------------------------------
SUGGESTED CITATIONS FOR THIS RUN
--------------------------------

Below you find a list of papers that are relevant to this ORCA run
We neither can nor want to force you to cite these papers, but we appreciate if you do
You receive ORCA, which is the product of decades of hard work by many enthusiastic individuals, for free
The only thing we kindly ask in return is that you cite our papers,
We deeply appreciate it, if you show your appreciation for ORCA by not just citing the generic ORCA reference.

Please note that relegating all ORCA citations to the supporting information does *not* help us.
SI sections are not indexed - citations you put there will not count into any citation statistics
But we need these citations in order to attract the funding resources that allow us to do what we are doing

Therefore, if you are a happy ORCA user, please consider citing a few of the papers listed below in the main body of your paper

In addition to the list printed below, the program has created the file icosahedron_nn3.00.bibtex that contains the list in bibtex format
You can import this file easily into all common literature databanks and citation aid programs

It goes without saying that in many instances, there are alternative algorithms to achieve similar
results as the ones you have gotten from ORCA. It is, of course, also the case that in some instances
ORCA just re-implements algorithms worked out by others. We are fully aware of that and we are also
fully appreciative of our colleagues work. Hence this citation list should not be read as indicating
that the listed papers, which are focused on our own work, are the only ones worth citing. It simply
meant to make it easier for users to cite ORCA specific papers. It is not a substitute for doing your
own literature research and citing the relevant literature in a scientifically appropriate manner.

List of essential papers. We consider these as the minimum necessary citations

  1. Neese, F.
     Software update: the ORCA program system, version 6.0
     WIRES Comput. Molec. Sci. 2025 15(1), e70019
     doi.org/10.1002/wcms.70019

List of papers to cite with high priority. The work reported in these papers was absolutely
necessary for this run to complete.
Our perspective: the developers of density functionals and basis sets usually get cited in chemistry papers
Good! But without the algorithms to do something with them, the functionals or basis sets would not do anything.
Hence, in our opinion, the algorithm design and method developments papers are equally worthy of getting cited

  1. Neese, F.
     An improvement of the resolution of the identity approximation for the formation of the Coulomb matrix
     J. Comp. Chem. 2003 24(14), 1740-1747
     doi.org/10.1002/jcc.10318
  2. Grimme, S.; Antony, J.; Ehrlich, S.; Krieg, H.
     A consistent and accurate ab initio parametrization of density functional dispersion correction (DFT-D) for the 94 elements H-Pu
     J. Chem. Phys. 2010 132 , 154104
     doi.org/10.1063/1.3382344
  3. Grimme, S.; Ehrlich, S.; Goerigk, L.
     Effect of the damping function in dispersion corrected density functional theory
     J. Comput. Chem. 2011 32(7), 1456-1465
     doi.org/10.1002/jcc.21759
  4. Helmich-Paris, B.
     A trust-region augmented Hessian implementation for restricted and unrestricted Hartree–Fock and Kohn–Sham methods
     J. Chem. Phys. 2021 154 , 164104
     doi.org/10.1063/5.0040798
  5. Neese, F.
     The SHARK Integral Generation and Digestion System
     J. Comp. Chem. 2022 44(3), 381
     doi.org/10.1002/jcc.26942

List of suggested additional citations. These are papers that are important in the 'surrounding' of 
of this run, or papers that preceded the highly important papers. If you like your results we are grateful for a citation.

  1. Neese, F.
     The ORCA program system
     WIRES Comput. Molec. Sci. 2012 2(1), 73-78
     doi.org/10.1002/wcms.81
  2. Neese, F.
     Software update: the ORCA program system, version 4.0
     WIRES Comput. Molec. Sci. 2018 8(1), 1-6
     doi.org/10.1002/wcms.1327
  3. Neese, F.; Wennmohs, F.; Becker, U.; Riplinger, C.
     The ORCA quantum chemistry program package
     J. Chem. Phys. 2020 152(22), 224108
     doi.org/10.1063/5.0004608
  4. Neese, F.
     Software update: The ORCA program system—Version 5.0
     WIRES Comput. Molec. Sci. 2022 12(1), e1606
     doi.org/10.1002/wcms.1606

List of optional additional citations

  1. Neese, F.
     Approximate second-order SCF convergence for spin unrestricted wavefunctions
     Chem. Phys. Lett. 2000 325(1-3), 93-98
     doi.org/10.1016/s0009-2614(00)00662-x

Timings for individual modules:

Sum of individual times          ...      622.597 sec (=  10.377 min)
Startup calculation              ...       58.028 sec (=   0.967 min)   9.3 %
SCF iterations                   ...      480.079 sec (=   8.001 min)  77.1 %
Property calculations            ...        0.711 sec (=   0.012 min)   0.1 %
SCF Gradient evaluation          ...       82.003 sec (=   1.367 min)  13.2 %
Geometry relaxation              ...        1.776 sec (=   0.030 min)   0.3 %
                             ****ORCA TERMINATED NORMALLY****
TOTAL RUN TIME: 0 days 0 hours 10 minutes 48 seconds 845 msec
