
                                 *****************
                                 * O   R   C   A *
                                 *****************

                                            #,                                       
                                            ###                                      
                                            ####                                     
                                            #####                                    
                                            ######                                   
                                           ########,                                 
                                     ,,################,,,,,                         
                               ,,#################################,,                 
                          ,,##########################################,,             
                       ,#########################################, ''#####,          
                    ,#############################################,,   '####,        
                  ,##################################################,,,,####,       
                ,###########''''           ''''###############################       
              ,#####''   ,,,,##########,,,,          '''####'''          '####       
            ,##' ,,,,###########################,,,                        '##       
           ' ,,###''''                  '''############,,,                           
         ,,##''                                '''############,,,,        ,,,,,,###''
      ,#''                                            '''#######################'''  
     '                                                          ''''####''''         
             ,#######,   #######,   ,#######,      ##                                
            ,#'     '#,  ##    ##  ,#'     '#,    #''#        ,####,    ,#,          
            ##       ##  ##   ,#'  ##            #'  '#       #'       ,# #          
            ##       ##  #######   ##           ,######,      #####,      #          
            '#,     ,#'  ##    ##  '#,     ,#' ,#      #,     #,   #      #          
             '#######'   ##     ##  '#######'  #'      '#     '####' #    #          



                #########################################################
                #                        -***-                          #
                #          Department of theory and spectroscopy        #
                #                                                       #
                #                      Frank Neese                      #
                #                                                       #
                #     Directorship, Architecture, Infrastructure        #
                #                    SHARK, DRIVERS                     #
                #        Core code/Algorithms in most modules           #
                #                                                       #
                #        Max Planck Institute fuer Kohlenforschung      #
                #                Kaiser Wilhelm Platz 1                 #
                #                 D-45470 Muelheim/Ruhr                 #
                #                      Germany                          #
                #                                                       #
                #                  All rights reserved                  #
                #                        -***-                          #
                #########################################################


                         Program Version 6.1.1  -  RELEASE   -
                                (GIT: $487d211c$)
                          ($2025-11-21 10:33:24 +0100$)
                                                                         
                                  - NO-DMRG VERSION -                    
                                                                         


 With contributions from (in alphabetic order):
[Max-Planck-Institut fuer Kohlenforschung]                               
  Daniel Aravena         : Magnetic Suceptibility                        
  Michael Atanasov       : Ab Initio Ligand Field Theory (pilot matlab implementation)
  Alexander A. Auer      : GIAO ZORA, VPT2 properties, NMR spectrum      
  Ute Becker             : All parallelization in ORCA, NUMFREQ, NUMCALC 
  Giovanni Bistoni       : ED, misc. LED, open-shell LED, HFLD           
  Dmytro Bykov           : pre 5.0 version of the SCF Hessian            
  Marcos Casanova-Páez   : Triplet and SCS-CIS(D). UHF-(DLPNO)-IP/EA/STEOM-CCSD. UHF-CVS-IP/STEOM-CCSD   
  Vijay G. Chilkuri      : MRCI spin determinant printing, contributions to CSF-ICE 
  Pauline Colinet        : FMM embedding                                 
  Dipayan Datta          : RHF DLPNO-CCSD density                        
  Achintya Kumar Dutta   : EOM-CC, STEOM-CC                              
  Nicolas Foglia         : Exact transition moments, OPA infrastructure, MCD improvements    
  Dmitry Ganyushin       : Spin-Orbit,Spin-Spin,Magnetic field MRCI      
  Miquel Garcia-Rates    : C-PCM and meta-GGA Hessian, CCSD/C-PCM, Gaussian charge scheme 
  Tiago L. C. Gouveia    : GS-ROHF, GS-ROCIS                             
  Yang Guo               : DLPNO-NEVPT2, F12-NEVPT2, CIM, IAO-localization        
  Andreas Hansen         : Spin unrestricted coupled pair/coupled cluster methods 
  Ingolf Harden          : AUTO-CI MPn and infrastructure                
  Benjamin Helmich-Paris : MC-RPA, TRAH-(SCF,CASSCF), AVAS, COSX integrals, SCF dyn. polar., MC-PDFT, srDFT 
  Lee Huntington         : MR-EOM, pCC                                   
  Robert Izsak           : Overlap fitted RIJCOSX, COSX-SCS-MP3, EOM     
  Riya Kayal             : Wick's Theorem for AUTO-CI, AUTO-CI UHF-CCSDT 
  Emily Kempfer          : AUTO-CI RHF CISDT and CCSDT, approximate NEVPT4
  Christian Kollmar      : KDIIS, OOCD, Brueckner-CCSD(T), CCSD density, CASPT2, CASPT2-K, improved NEVPT2 
  Axel Koslowski         : Symmetry handling                             
  Simone Kossmann        : meta-GGA functionals, TD-DFT gradient, OOMP2, (MP2 Hessian; deprecated post 5.0) 
  Lucas Lang             : DCDCAS, Hyperfine gauge corrections, ICE-SOC+SSC
  Marvin Lechner         : AUTO-CI (C++ implementation), FIC-MRCC        
  Spencer Leger          : CASSCF response                               
  Dagmar Lenk            : GEPOL surface, SMD, ORCA-2-JSON               
  Dimitrios Liakos       : Extrapolation schemes; Compound Job, Property file
  Dimitrios Manganas     : Further ROCIS development; embedding schemes. LFT, Crystal Embedding 
  Dimitrios Pantazis     : SARC Basis sets                               
  Anastasios Papadopoulos: AUTO-CI, single reference methods and gradients 
  Taras Petrenko         : pre 6.0 DFT Hessian and TD-DFT gradient,  ECA, NRVS 
  Petra Pikulova         : Analytic Raman intensities                    
  Peter Pinski           : DLPNO-MP2, DLPNO-MP2 Gradient                 
  Shashank Vittal Rao    : ES-AILFT, MagRelax                            
  Christoph Reimann      : Effective Core Potentials                     
  Marius Retegan         : Local ZFS, SOC                                
  Christoph Riplinger    : Optimizer, TS searches, QM/MM, DLPNO-CCSD(T), (RO)-DLPNO pert. Triples 
  Michael Roemelt        : Original ROCIS implementation, recursive CI coupling coefficients
  Masaaki Saitow         : Open-shell DLPNO-CCSD energy and density      
  Barbara Sandhoefer     : DKH picture change effects                    
  Yorick L. A. Schmerwitz: GMF and freeze-and-release deltaSCF, NEB S-IDPP initial path                    
  Kantharuban Sivalingam : CASSCF convergence/infrastructure, NEVPT2, NEVPT3, NEVPT4(SD), FIC-MRCI and CEPA variants
  Bernardo de Souza      : ESD, SOC TD-DFT                               
  Georgi L. Stoychev     : AutoAux, RI-MP2 NMR, DLPNO-MP2 response, X2C  
  Van Anh Tran           : RI-MP2 g-tensors                              
  Willem Van den Heuvel  : Paramagnetic NMR                              
  Zikuan Wang            : NOTCH, Electric field optimization            
  Frank Wennmohs         : Technical directorship and infrastructure     
  Hang Xu                : AUTO-CI-Response properties                   
                                                                         
[FACCTs GmbH]                                                            
  Markus Bursch, Nicolas Foglia, Miquel Garcia-Rates, Ingolf Harden, Hagen Neugebauer, Anastasios Papadopoulos, 
  Christoph Riplinger, Bernardo de Souza, Georgi L. Stoychev                                                    
                                                                 
  APM, various basis sets, CI-OPT, improved COSX, DLPNO-Multilevel,           
  DOCKER, DRACO, updates on ESD, Fragmentator, GOAT, IRC, LR-CPCM, L-BFGS, MBIS, meta-GGA TD-DFT gradient, ML-optimized integration grids, 
  MM, NACMEs, nearIR, NEB, NEB-TS, NL-DFT gradient (VV10), 2- and 3-layer-ONIOM, interface openCOSMO-RS, QMMM,   
  Crystal-QMMM, RESP, rigid body optimization, SF, symmetry and pop. for TD-DFT, various functionals, SOLVATOR                                   
                                                                         
[Other institutions]                                                     
  V. Asgeirsson          : NEB                                           
  Christoph Bannwarth    : sTDA-DFT, sTD-DFT, PBEh-3c, B97-3c, D3        
  Giovanni Bistoni       : ETS/NOCV, ADLD/ADEX, COVALED                  
  Martin Brehm           : Molecular dynamics                            
  Ronald Cardenas        : ETS/NOCV                                      
  Martina Colucci        : COVALED                                       
  Sebastian Ehlert       : rSCAN, r2SCAN, r2SCAN-3c, D4, dhf basis sets  
  Marvin Friede          : D4 for Fr, Ra, Ac-Lr                          
  Lars Goerigk           : TD-DFT with DH, B97 family of functionals     
  Stefan Grimme          : VdW corrections, initial TS optimization, DFT functionals, gCP, sTDA/sTD-DF 
  Waldemar Hujo          : DFT-NL                                        
  H. Jonsson             : NEB                                           
  Holger Kruse           : gCP                                           
  Marcel Mueller         : wB97X-3c, vDZP basis set                      
  Hagen Neugebauer       : wr2SCAN, Native XTB                           
  Gianluca Regni         : ADLD/ADEX                                     
  Tobias Risthaus        : pre 6.0 range-separated hybrid DFT and stability analysis
  Lukas Wittmann         : regularized MP2, r2SCAN double-hybrids, wr2SCAN        
                                                                         
We gratefully acknowledge several colleagues who have allowed us to      
interface, adapt or use parts of their codes:                            
  Ed Valeev, F. Pavosevic, A. Kumar             : LibInt (2-el integral package), F12 methods 
  Garnet Chan, S. Sharma, J. Yang, R. Olivares  : DMRG                   
  Ulf Ekstrom                                   : XCFun DFT Library      
  Mihaly Kallay                                 : mrcc  (arbitrary order and MRCC methods)
  Frank Weinhold                                : gennbo (NPA and NBO analysis)           
  Simon Mueller                                 : openCOSMO-RS                            
  Christopher J. Cramer and Donald G. Truhlar   : smd solvation model                     
  S Lehtola, MJT Oliveira, MAL Marques          : LibXC Library                           
  Liviu Ungur et al                             : ANISO software                          


 Your calculation uses the libint2 library for the computation of 2-el integrals
 For citations please refer to: http://libint.valeyev.net

 Your ORCA version has been built with support for libXC version: 7.0.0
 For citations please refer to: https://libxc.gitlab.io

 This ORCA versions uses:
   CBLAS   interface :  Fast vector & matrix operations
   LAPACKE interface :  Fast linear algebra routines
   SCALAPACK package :  Parallel linear algebra routines
   Shared memory     :  Shared parallel matrices
   BLAS/LAPACK       :  OpenBLAS 0.3.29  USE64BITINT DYNAMIC_ARCH NO_AFFINITY Zen SINGLE_THREADED
        Core in use  :  Zen
   Copyright (c) 2011-2014, The OpenBLAS Project


  ***********************************
  * Starting time: Thu Apr 23 19:25:39 2026
  * Host name:     vmi3233575
  * Process ID:    1431377
  * Working dir.:  /root/b12_scan/jobs/quasi_planar_nn1.70_perturb2
  ***********************************

NOTE: MaxCore=2500 MB was set to SCF,MP2,MDCI,CIPSI,MRCI,RASCI and CIS
      => If you want to overwrite this, your respective input block should be placed after the MaxCore statement
Your calculation utilizes the atom-pairwise dispersion correction
with the Becke-Johnson damping scheme (D3BJ)


================================================================================

----- Orbital basis set information -----
Your calculation utilizes the basis: def2-SVP
   F. Weigend and R. Ahlrichs, Phys. Chem. Chem. Phys. 7, 3297 (2005).

----- AuxJ basis set information -----
Your calculation utilizes the auxiliary basis: def2/J
   H-Rn: F. Weigend, Phys. Chem. Chem. Phys. 8, 1057 (2006).
   Fr-Lr: K. Eichkorn, F. Weigend, O. Treutler, R. Ahlrichs; Theor. Chem. Acc. 97, 119 (1997).

================================================================================
                                        WARNINGS
                       Please study these warnings very carefully!
================================================================================


WARNING: Geometry Optimization
  ===> : Switching off AutoStart
         For restart on a previous wavefunction, please use MOREAD

================================================================================
                                       INPUT FILE
================================================================================
NAME = quasi_planar_nn1.70_perturb2.inp
|  1> ! BP86 def2-SVP def2/J RI Opt TightSCF D3BJ
|  2> ! SlowConv
|  3> 
|  4> %pal nprocs 8 end
|  5> %maxcore 2500
|  6> 
|  7> %geom
|  8>   MaxIter 300
|  9> end
| 10> 
| 11> * xyz 0 1
| 12> B      1.00985346     -0.07841227      0.20572105
| 13> B     -0.85696784      1.11995611      0.43930546
| 14> B     -0.53956115     -0.73392901      0.30986218
| 15> B      3.02426497      0.45840890     -0.13581034
| 16> B      2.13063141      2.11736918     -0.02098315
| 17> B      0.21766671      3.19606320     -0.18030471
| 18> B     -1.80464904      2.40130600      0.03699289
| 19> B     -2.99837061      0.81938646     -0.02765127
| 20> B     -2.96492368     -1.23826670      0.21927856
| 21> B     -1.52943156     -3.10633260     -0.31495157
| 22> B      0.97283972     -2.98668465      0.07252451
| 23> B      2.68912827     -1.72694028     -0.04662114
| 24> *
| 25> 
| 26>                          ****END OF INPUT****
================================================================================

                       *****************************
                       * Geometry Optimization Run *
                       *****************************

Geometry optimization settings:
Update method            Update   .... BFGS
Choice of coordinates    CoordSys .... (2022) Redundant Internals
Initial Hessian          InHess   .... Almloef's Model
Max. no of cycles        MaxIter  .... 300

Convergence Tolerances:
Energy Change            TolE     ....  5.0000e-06 Eh
Max. Gradient            TolMAXG  ....  3.0000e-04 Eh/bohr
RMS Gradient             TolRMSG  ....  1.0000e-04 Eh/bohr
Max. Displacement        TolMAXD  ....  4.0000e-03 bohr
RMS Displacement         TolRMSD  ....  2.0000e-03 bohr
Strict Convergence                .... False

------------------------------------------------------------------------------
                        ORCA OPTIMIZATION COORDINATE SETUP
------------------------------------------------------------------------------

The optimization will be done in redundant internal coordinates (2022)
Making redundant internal coordinates   ...  (2022 redundants) done
Evaluating the initial hessian          ...  (Almloef) done
Evaluating the coordinates              ...  done
Calculating the B-matrix                .... done
Calculating the G-matrix                .... done
The number of degrees of freedom        ....  122

    -----------------------------------------------------------------
                    Redundant Internal Coordinates


    -----------------------------------------------------------------
         Definition                    Initial Value    Approx d2E/dq
    -----------------------------------------------------------------
      1. B(B   2,B   0)                  1.6856         0.282989   
      2. B(B   2,B   1)                  1.8853         0.135875   
      3. B(B   3,B   0)                  2.1125         0.058974   
      4. B(B   4,B   0)                  2.4757         0.015532   
      5. B(B   4,B   3)                  1.8878         0.134621   
      6. B(B   5,B   4)                  2.2019         0.042465   
      7. B(B   5,B   1)                  2.4185         0.019166   
      8. B(B   6,B   5)                  2.1837         0.045399   
      9. B(B   6,B   1)                  1.6437         0.330051   
     10. B(B   7,B   6)                  1.9828         0.094962   
     11. B(B   8,B   7)                  2.0727         0.068264   
     12. B(B   9,B   2)                  2.6455         0.010000   
     13. B(B   9,B   8)                  2.4157         0.019360   
     14. B(B  10,B   2)                  2.7237         0.010000   
     15. B(B  10,B   9)                  2.5349         0.012495   
     16. B(B  11,B  10)                  2.1323         0.054833   
     17. B(B  11,B   0)                  2.3667         0.023180   
     18. B(B  11,B   3)                  2.2127         0.040815   
     19. A(B   3,B   0,B   4)           47.7874         0.180774   
     20. A(B   2,B   0,B   4)          140.0605         0.219882   
     21. A(B   3,B   0,B  11)           58.8803         0.189479   
     22. A(B   4,B   0,B  11)          106.6674         0.163290   
     23. A(B   2,B   0,B   3)          170.1767         0.266022   
     24. A(B   2,B   0,B  11)          112.8252         0.232296   
     25. A(B   5,B   1,B   6)           61.5943         0.231123   
     26. A(B   2,B   1,B   6)          147.8665         0.310406   
     27. A(B   2,B   1,B   5)          138.7406         0.205258   
     28. A(B   0,B   2,B   9)          132.6957         0.202649   
     29. A(B   0,B   2,B   1)           77.0904         0.302830   
     30. A(B   1,B   2,B  10)          155.8913         0.179198   
     31. A(B   9,B   2,B  10)           56.3218         0.136940   
     32. A(B   1,B   2,B   9)          146.6212         0.185261   
     33. A(B   0,B   2,B  10)           78.8052         0.195492   
     34. A(B   4,B   3,B  11)          142.5379         0.226663   
     35. A(B   0,B   3,B  11)           66.3017         0.203206   
     36. A(B   0,B   3,B   4)           76.2368         0.238623   
     37. A(B   0,B   4,B   5)           92.7410         0.174200   
     38. A(B   3,B   4,B   5)          146.8608         0.227903   
     39. A(B   0,B   4,B   3)           55.9758         0.199625   
     40. A(B   4,B   5,B   6)          128.2482         0.197609   
     41. A(B   1,B   5,B   4)           86.9595         0.178351   
     42. A(B   1,B   5,B   6)           41.4595         0.179712   
     43. A(B   1,B   6,B   7)           74.5232         0.293162   
     44. A(B   5,B   6,B   7)          147.6343         0.219310   
     45. A(B   1,B   6,B   5)           76.9462         0.261756   
     46. A(B   6,B   7,B   8)          141.1164         0.231913   
     47. A(B   7,B   8,B   9)          138.6709         0.188713   
     48. A(B   2,B   9,B  10)           63.3983         0.145088   
     49. A(B   2,B   9,B   8)           58.4421         0.150932   
     50. A(B   8,B   9,B  10)          121.0826         0.156895   
     51. A(B   9,B  10,B  11)          144.4757         0.174936   
     52. A(B   2,B  10,B  11)           87.8893         0.162451   
     53. A(B   2,B  10,B   9)           60.2799         0.141556   
     54. A(B   0,B  11,B  10)           80.4708         0.187837   
     55. A(B   3,B  11,B  10)          135.0437         0.201339   
     56. A(B   0,B  11,B   3)           54.8180         0.181447   
     57. D(B   1,B   2,B   0,B   4)     -8.8180         0.010000   
     58. D(B  10,B   2,B   0,B  11)      0.7533         0.010000   
     59. D(B   1,B   2,B   0,B   3)   -148.5693         0.010000   
     60. D(B  10,B   2,B   1,B   6)    141.7504         0.010000   
     61. D(B  10,B   2,B   0,B   3)     31.8915         0.010000   
     62. D(B   0,B   2,B   1,B   6)    140.6438         0.010000   
     63. D(B   0,B   2,B   1,B   5)     23.3468         0.010000   
     64. D(B  10,B   2,B   0,B   4)    171.6427         0.010000   
     65. D(B   9,B   2,B   1,B   6)    -15.7905         0.010000   
     66. D(B  10,B   2,B   1,B   5)     24.4534         0.010000   
     67. D(B   1,B   2,B   0,B  11)   -179.7074         0.010000   
     68. D(B  11,B   3,B   0,B   2)    -33.8299         0.010000   
     69. D(B   4,B   3,B   0,B  11)    179.7723         0.010000   
     70. D(B  11,B   3,B   0,B   4)   -179.7723         0.010000   
     71. D(B   4,B   3,B   0,B   2)    145.9424         0.010000   
     72. D(B   5,B   4,B   3,B  11)    -21.4486         0.010000   
     73. D(B   0,B   4,B   3,B  11)      0.3428         0.010000   
     74. D(B   5,B   4,B   0,B  11)    168.0739         0.010000   
     75. D(B   5,B   4,B   0,B   3)    168.2774         0.010000   
     76. D(B   5,B   4,B   0,B   2)     -3.1634         0.010000   
     77. D(B   5,B   4,B   3,B   0)    -21.7914         0.010000   
     78. D(B   3,B   4,B   0,B  11)     -0.2035         0.010000   
     79. D(B   3,B   4,B   0,B   2)   -171.4408         0.010000   
     80. D(B   1,B   5,B   4,B   0)      9.6036         0.010000   
     81. D(B   1,B   5,B   4,B   3)     27.5439         0.010000   
     82. D(B   6,B   5,B   4,B   0)      5.5420         0.010000   
     83. D(B   4,B   5,B   1,B   6)   -175.1807         0.010000   
     84. D(B   4,B   5,B   1,B   2)    -27.6848         0.010000   
     85. D(B   6,B   5,B   1,B   2)    147.4959         0.010000   
     86. D(B   6,B   5,B   4,B   3)     23.4823         0.010000   
     87. D(B   7,B   6,B   1,B   2)     26.3309         0.010000   
     88. D(B   7,B   6,B   5,B   1)    -28.6532         0.010000   
     89. D(B   7,B   6,B   5,B   4)    -22.5208         0.010000   
     90. D(B   1,B   6,B   5,B   4)      6.1324         0.010000   
     91. D(B   5,B   6,B   1,B   2)   -138.2220         0.010000   
     92. D(B   7,B   6,B   1,B   5)    164.5529         0.010000   
     93. D(B   8,B   7,B   6,B   5)     27.0529         0.010000   
     94. D(B   8,B   7,B   6,B   1)     -1.9393         0.010000   
     95. D(B   9,B   8,B   7,B   6)    -39.8774         0.010000   
     96. D(B   2,B   9,B   8,B   7)     34.6185         0.010000   
     97. D(B  10,B   9,B   8,B   7)     44.9304         0.010000   
     98. D(B  10,B   9,B   2,B   1)    169.1921         0.010000   
     99. D(B  10,B   9,B   2,B   0)     21.2125         0.010000   
    100. D(B   8,B   9,B   2,B  10)    170.1276         0.010000   
    101. D(B   8,B   9,B   2,B   1)    -20.6804         0.010000   
    102. D(B   8,B   9,B   2,B   0)   -168.6599         0.010000   
    103. D(B   2,B  10,B   9,B   8)     -9.8222         0.010000   
    104. D(B  11,B  10,B   9,B   2)    -29.2404         0.010000   
    105. D(B  11,B  10,B   9,B   8)    -39.0627         0.010000   
    106. D(B   9,B  10,B   2,B   1)   -165.3704         0.010000   
    107. D(B   9,B  10,B   2,B   0)   -164.2709         0.010000   
    108. D(B  11,B  10,B   2,B   9)    163.4997         0.010000   
    109. D(B  11,B  10,B   2,B   1)     -1.8707         0.010000   
    110. D(B  11,B  10,B   2,B   0)     -0.7712         0.010000   
    111. D(B  10,B  11,B   3,B   0)      6.9283         0.010000   
    112. D(B  10,B  11,B   3,B   4)      6.5647         0.010000   
    113. D(B   0,B  11,B   3,B   4)     -0.3636         0.010000   
    114. D(B  10,B  11,B   0,B   4)   -174.8661         0.010000   
    115. D(B  10,B  11,B   0,B   3)   -175.0421         0.010000   
    116. D(B  10,B  11,B   0,B   2)     -0.9572         0.010000   
    117. D(B   3,B  11,B   0,B   4)      0.1760         0.010000   
    118. D(B   3,B  11,B  10,B   2)     -5.1912         0.010000   
    119. D(B   3,B  11,B   0,B   2)    174.0849         0.010000   
    120. D(B   0,B  11,B  10,B   9)     25.6659         0.010000   
    121. D(B   0,B  11,B  10,B   2)      0.5463         0.010000   
    122. D(B   3,B  11,B  10,B   9)     19.9284         0.010000   
    -----------------------------------------------------------------

Number of atoms                         .... 12
Number of degrees of freedom            .... 122


         *************************************************************
         *                GEOMETRY OPTIMIZATION CYCLE   1            *
         *************************************************************
---------------------------------
CARTESIAN COORDINATES (ANGSTROEM)
---------------------------------
  B      1.009853   -0.078412    0.205721
  B     -0.856968    1.119956    0.439305
  B     -0.539561   -0.733929    0.309862
  B      3.024265    0.458409   -0.135810
  B      2.130631    2.117369   -0.020983
  B      0.217667    3.196063   -0.180305
  B     -1.804649    2.401306    0.036993
  B     -2.998371    0.819386   -0.027651
  B     -2.964924   -1.238267    0.219279
  B     -1.529432   -3.106333   -0.314952
  B      0.972840   -2.986685    0.072525
  B      2.689128   -1.726940   -0.046621

----------------------------
CARTESIAN COORDINATES (A.U.)
----------------------------
  NO LB      ZA    FRAG     MASS         X           Y           Z
   0 B     5.0000    0    10.810    1.908346   -0.148178    0.388756
   1 B     5.0000    0    10.810   -1.619435    2.116410    0.830167
   2 B     5.0000    0    10.810   -1.019623   -1.386925    0.585555
   3 B     5.0000    0    10.810    5.715033    0.866267   -0.256644
   4 B     5.0000    0    10.810    4.026310    4.001248   -0.039652
   5 B     5.0000    0    10.810    0.411330    6.039684   -0.340727
   6 B     5.0000    0    10.810   -3.410292    4.537811    0.069906
   7 B     5.0000    0    10.810   -5.666099    1.548416   -0.052253
   8 B     5.0000    0    10.810   -5.602894   -2.339985    0.414376
   9 B     5.0000    0    10.810   -2.890207   -5.870118   -0.595172
  10 B     5.0000    0    10.810    1.838401   -5.644016    0.137051
  11 B     5.0000    0    10.810    5.081716   -3.263444   -0.088101

--------------------------------
INTERNAL COORDINATES (ANGSTROEM)
--------------------------------
 B      0   0   0     0.000000000000     0.00000000     0.00000000
 B      1   0   0     2.230621038391     0.00000000     0.00000000
 B      1   2   0     1.685595801211    55.47022161     0.00000000
 B      1   2   3     2.112504293614   132.72302755   173.04419836
 B      4   1   2     1.887833529138    76.23679052     1.72955838
 B      5   4   1     2.201907829976   146.86081556   338.20861016
 B      2   1   3     1.643719137023   151.12598592   224.30673763
 B      7   2   1     1.982831179183    74.52317157   131.02911634
 B      8   7   2     2.072686557328   141.11640621   358.06066884
 B      9   8   7     2.415721355025   138.67092765   320.12258918
 B     10   9   8     2.534919111771   121.08257823    44.93039033
 B     11  10   9     2.132322196696   144.47572519   320.93731931

---------------------------
INTERNAL COORDINATES (A.U.)
---------------------------
 B      0   0   0     0.000000000000     0.00000000     0.00000000
 B      1   0   0     4.215262871122     0.00000000     0.00000000
 B      1   2   0     3.185314436776    55.47022161     0.00000000
 B      1   2   3     3.992054571663   132.72302755   173.04419836
 B      4   1   2     3.567488356506    76.23679052     1.72955838
 B      5   4   1     4.161002770792   146.86081556   338.20861016
 B      2   1   3     3.106179010059   151.12598592   224.30673763
 B      7   2   1     3.747007898455    74.52317157   131.02911634
 B      8   7   2     3.916809954810   141.11640621   358.06066884
 B      9   8   7     4.565051776863   138.67092765   320.12258918
 B     10   9   8     4.790302892891   121.08257823    44.93039033
 B     11  10   9     4.029504981036   144.47572519   320.93731931

---------------------
BASIS SET INFORMATION
---------------------
There are 1 groups of distinct atoms

 Group   1 Type B   : 7s4p1d contracted to 3s2p1d pattern {511/31/1}

Atom   0B    basis set group =>   1
Atom   1B    basis set group =>   1
Atom   2B    basis set group =>   1
Atom   3B    basis set group =>   1
Atom   4B    basis set group =>   1
Atom   5B    basis set group =>   1
Atom   6B    basis set group =>   1
Atom   7B    basis set group =>   1
Atom   8B    basis set group =>   1
Atom   9B    basis set group =>   1
Atom  10B    basis set group =>   1
Atom  11B    basis set group =>   1
---------------------------------
AUXILIARY/J BASIS SET INFORMATION
---------------------------------
There are 1 groups of distinct atoms

 Group   1 Type B   : 12s5p4d2f1g contracted to 6s4p3d1f1g pattern {711111/2111/211/2/1}

Atom   0B    basis set group =>   1
Atom   1B    basis set group =>   1
Atom   2B    basis set group =>   1
Atom   3B    basis set group =>   1
Atom   4B    basis set group =>   1
Atom   5B    basis set group =>   1
Atom   6B    basis set group =>   1
Atom   7B    basis set group =>   1
Atom   8B    basis set group =>   1
Atom   9B    basis set group =>   1
Atom  10B    basis set group =>   1
Atom  11B    basis set group =>   1


           ************************************************************
           *        Program running with 8 parallel MPI-processes     *
           *              working on a common directory               *
           ************************************************************
------------------------------------------------------------------------------
                             ORCA STARTUP CALCULATIONS
                           -- RI-GTO INTEGRALS CHOSEN --
------------------------------------------------------------------------------
------------------------------------------------------------------------------
                   ___                                                        
                  /   \      - P O W E R E D   B Y -                         
                 /     \                                                     
                 |  |  |   _    _      __       _____    __    __             
                 |  |  |  | |  | |    /  \     |  _  \  |  |  /  |          
                  \  \/   | |  | |   /    \    | | | |  |  | /  /          
                 / \  \   | |__| |  /  /\  \   | |_| |  |  |/  /          
                |  |  |   |  __  | /  /__\  \  |    /   |      \           
                |  |  |   | |  | | |   __   |  |    \   |  |\   \          
                \     /   | |  | | |  |  |  |  | |\  \  |  | \   \       
                 \___/    |_|  |_| |__|  |__|  |_| \__\ |__|  \__/        
                                                                              
                      - O R C A' S   B I G   F R I E N D -                    
                                      &                                       
                       - I N T E G R A L  F E E D E R -                       
                                                                              
 v1 FN, 2020, v2 2021, v3 2022-2024                                           
------------------------------------------------------------------------------


----------------------
SHARK INTEGRAL PACKAGE
----------------------

Number of atoms                             ...     12
Number of basis functions                   ...    168
Number of shells                            ...     72
Maximum angular momentum                    ...      2
Integral batch strategy                     ... SHARK/LIBINT Hybrid
RI-J (if used) integral strategy            ... SPLIT-RIJ (Revised 2003 algorithm where possible)
Printlevel                                  ...      1
Contraction scheme used                     ... SEGMENTED contraction
Prescreening option                         ... SCHWARTZ
   Thresh                                   ... 2.500e-11
   Tcut                                     ... 2.500e-12
   Tpresel                                  ... 2.500e-12 
Coulomb Range Separation                    ... NOT USED
Exchange Range Separation                   ... NOT USED
Multipole approximations                    ... NOT USED
Finite Nucleus Model                        ... NOT USED
CABS basis                                  ... NOT available
Auxiliary Coulomb fitting basis             ... AVAILABLE
   # of basis functions in Aux-J            ...    588
   # of shells in Aux-J                     ...    180
   Maximum angular momentum in Aux-J        ...      4
Auxiliary J/K fitting basis                 ... NOT available
Auxiliary Correlation fitting basis         ... NOT available
Auxiliary 'external' fitting basis          ... NOT available

Checking pre-screening integrals            ... done (  0.0 sec) Dimension = 72
   => SHARK Basis and OBASIS are compatible. Storing Pre-screening
Shell pair information
Shell pair cut-off parameter TPreSel        ...   2.5e-12
Total number of shell pairs                 ...      2628
Shell pairs after pre-screening             ...      2475
Total number of primitive shell pairs       ...     10596
Primitive shell pairs kept                  ...      6940
          la=0 lb=0:    594 shell pairs
          la=1 lb=0:    828 shell pairs
          la=1 lb=1:    300 shell pairs
          la=2 lb=0:    392 shell pairs
          la=2 lb=1:    288 shell pairs
          la=2 lb=2:     73 shell pairs

Checking whether 4 symmetric matrices of dimension 168 fit in memory
:Max Core in MB      =   2500.00
 MB in use           =      6.64
 MB left             =   2493.36
 MB needed           =      0.43
 Data fit in memory  = YES
Calculating RI/J V-Matrix + Cholesky decomp.... done (  0.0 sec)
Calculating Nuclear repulsion               ... done (  0.0 sec) ENN=    262.735400071747 Eh

Diagonalization of the overlap matrix:
Smallest eigenvalue                        ... 8.416e-04
Time for diagonalization                   ...    0.004 sec
Threshold for overlap eigenvalues          ... 1.000e-07
Number of eigenvalues below threshold      ... 0
Time for construction of square roots      ...    0.003 sec
Total time needed                          ...    0.009 sec

-------------------
DFT GRID GENERATION
-------------------

General Integration Accuracy     IntAcc      ... 4.388
Radial Grid Type                 RadialGrid  ... OptM3 with GC (2021)
Angular Grid (max. ang.)         AngularGrid ... 4 (Lebedev-302)
Angular grid pruning method      GridPruning ... 4 (adaptive)
Weight generation scheme         WeightScheme... mBecke (2022)
Basis function cutoff            BFCut       ... 1.0000e-11
Integration weight cutoff        WCut        ... 1.0000e-14
Partially contracted basis set               ... off
Rotationally invariant grid construction     ... off
Angular grids for H and He will be reduced by one unit

Total number of grid points                  ...    72307
Total number of batches                      ...     1135
Average number of points per batch           ...       63
Average number of grid points per atom       ...     6026
Grids setup in   0.8 sec
Initializing property integral containers    ... done (  0.0 sec)

SHARK setup successfully completed in   1.0 seconds

Maximum memory used throughout the entire STARTUP-calculation: 19.8 MB


           ************************************************************
           *        Program running with 8 parallel MPI-processes     *
           *              working on a common directory               *
           ************************************************************
-------------------------------------------------------------------------------
                                 ORCA GUESS
                   Start orbitals & Density for SCF / CASSCF
-------------------------------------------------------------------------------

------------
SCF SETTINGS
------------
Hamiltonian:
 Density Functional     Method          .... DFT(GTOs)
 Exchange Functional    Exchange        .... B88
   X-Alpha parameter    XAlpha          ....  0.666667
   Becke's b parameter  XBeta           ....  0.004200
 Correlation Functional Correlation     .... P86
 LDA part of GGA corr.  LDAOpt          .... PW91-LDA
 Gradients option       PostSCFGGA      .... off
   NL short-range parameter             ....  4.400000
 RI-approximation to the Coulomb term is turned on
   Number of AuxJ basis functions       .... 588


General Settings:
 Integral files         IntName         .... quasi_planar_nn1.70_perturb2
 Hartree-Fock type      HFTyp           .... RHF
 Total Charge           Charge          ....    0
 Multiplicity           Mult            ....    1
 Number of Electrons    NEL             ....   60
 Basis Dimension        Dim             ....  168
 Nuclear Repulsion      ENuc            ....    262.7354000717 Eh

Convergence Acceleration:
 AO-DIIS                CNVDIIS         .... on
   Start iteration      DIISMaxIt       ....     0
   Startup error        DIISStart       ....  0.200000
   # of expansion vecs  DIISMaxEq       ....     5
   Bias factor          DIISBfac        ....   1.050
   Max. coefficient     DIISMaxC        ....  10.000
 MO-DIIS                CNVKDIIS        .... off
 Trust-Rad. Augm. Hess. CNVTRAH         .... auto
   Auto Start mean grad. ratio tolernc. ....  1.125000
   Auto Start start iteration           ....    50
   Auto Start num. interpolation iter.  ....    10
   Max. Number of Micro iterations      ....    24
   Max. Number of Macro iterations      .... Maxiter - #DIIS iter
   Number of Davidson start vectors     ....     2
   Converg. threshold    (grad. norm)   ....   1.000e-05
   Grad. Scal. Fac. for Micro threshold ....   0.100
   Minimum threshold for Micro iter.    ....   1.000e-02
   NR start threshold (gradient norm)   ....   1.000e-04
   Initial trust radius                 ....   0.400
   Minimum AH scaling param. (alpha)    ....   1.000
   Maximum AH scaling param. (alpha)    .... 1000.000
   Quad. conv. algorithm                .... NR
   White noise on init. David. guess    .... on
   Maximum white noise                  ....   0.010
   Pseudo random numbers                .... off
   Inactive MOs                         .... canonical
   Orbital update algorithm             .... Taylor
   Preconditioner                       .... Diag
   Full preconditioner red. dimension   ....   250
 SOSCF                 CNVSOSCF           .... on
   Start iteration     SOSCFMaxIt         ....   150
   Startup grad/error  SOSCFStart         ....  0.001000
   Hessian update      SOSCFHessUp        .... L-BFGS
   Autom. constraints  SOSCFAutoConstrain .... off
 Level Shifting         CNVShift        .... on
   Level shift para.    LevelShift      ....    0.2500
   Turn off err/grad.   ShiftErr        ....    0.0000
 Zerner damping         CNVZerner       .... off
 Static damping         CNVDamp         .... on
   Fraction old density DampFac         ....    0.8500
   Max. Damping (<1)    DampMax         ....    0.9800
   Min. Damping (>=0)   DampMin         ....    0.0000
   Turn off err/grad.   DampErr         ....    0.0300

SCF Procedure:
 Maximum # iterations   MaxIter         ....   125
 SCF integral mode      SCFMode         .... Direct
   Integral package                     .... SHARK and LIBINT hybrid scheme
 Reset frequency        DirectResetFreq ....    20
 Integral Threshold     Thresh          ....  2.500e-11 Eh
 Primitive CutOff       TCut            ....  2.500e-12 Eh

Convergence Tolerance:
 Convergence Check Mode ConvCheckMode   .... Total+1el-Energy
 Convergence forced     ConvForced      .... 0
 Energy Change          TolE            ....  1.000e-08 Eh
 1-El. energy change                    ....  1.000e-05 Eh
 Orbital Gradient       TolG            ....  1.000e-05
 Orbital Rotation angle TolX            ....  1.000e-05
 DIIS Error             TolErr          ....  5.000e-07

------------------------------
INITIAL GUESS: MODEL POTENTIAL
------------------------------
Loading Hartree-Fock densities                     ... done
Calculating cut-offs                               ... done
Initializing the effective Hamiltonian             ... done
Setting up the integral package (SHARK)            ... done
Starting the Coulomb interaction                   ... done (   0.3 sec)
Making the grid                                    ... done (   0.4 sec)
Mapping shells                                     ... done
Starting the XC term evaluation                    ... done (   0.0 sec)
  promolecular density results
     # of electrons  =     60.000773056
     EX              =    -44.855384102
     EC              =     -1.840315556
     EX+EC           =    -46.695699658
Transforming the Hamiltonian                       ... done (   0.0 sec)
Diagonalizing the Hamiltonian                      ... done (   0.0 sec)
Back transforming the eigenvectors                 ... done (   0.0 sec)
Now organizing SCF variables                       ... done
                      ------------------
                      INITIAL GUESS DONE (   0.8 sec)
                      ------------------
             **** ENERGY FILE WAS UPDATED (quasi_planar_nn1.70_perturb2.en.tmp) ****
Finished Guess after   1.7 sec
Maximum memory used throughout the entire GUESS-calculation: 9.4 MB


           ************************************************************
           *        Program running with 8 parallel MPI-processes     *
           *              working on a common directory               *
           ************************************************************

-------------------------------------------------------------------------------------------
                                      ORCA LEAN-SCF
                              memory conserving SCF solver
-------------------------------------------------------------------------------------------

----------------------------------------D-I-I-S--------------------------------------------
Iteration    Energy (Eh)           Delta-E    RMSDP     MaxDP     DIISErr   Damp  Time(sec)
-------------------------------------------------------------------------------------------
               ***  Starting incremental Fock matrix formation  ***
    1    -296.3900142661572659     0.00e+00  8.85e-03  6.50e-02  1.49e-01  0.850   0.6
Warning: op=0 Small HOMO/LUMO gap (  -0.038) - skipping pre-diagonalization
         Will do a full diagonalization
    2    -296.6274128737257456    -2.37e-01  8.92e-03  5.54e-02  8.16e-02  0.850   0.4
                               ***Turning on AO-DIIS***
    3    -296.6815873137825861    -5.42e-02  5.20e-03  2.73e-02  2.58e-02  0.850   0.3
    4    -296.6632919264506540     1.83e-02  2.24e-02  1.17e-01  4.60e-02  0.000   0.7
    5    -296.3562636079270192     3.07e-01  1.23e-03  6.28e-03  1.66e-01  0.850   1.1
    6    -296.4049951073611169    -4.87e-02  1.83e-03  8.68e-03  1.60e-01  0.850   0.6
    7    -296.4712118991391776    -6.62e-02  2.10e-03  9.51e-03  1.51e-01  0.850   0.4
    8    -296.5380715250529988    -6.69e-02  2.77e-03  1.21e-02  1.41e-01  0.850   0.3
    9    -296.6030250232537924    -6.50e-02  5.09e-03  4.24e-02  1.30e-01  0.850   0.4
   10    -296.6992387142407210    -9.62e-02  3.67e-03  2.67e-02  8.72e-02  0.850   0.7
   11    -296.7514306077045489    -5.22e-02  2.50e-03  1.31e-02  5.62e-02  0.850   0.6
   12    -296.7812680193277970    -2.98e-02  1.87e-03  9.59e-03  3.61e-02  0.850   2.3
   13    -296.7995110862336219    -1.82e-02  1.41e-03  6.27e-03  2.36e-02  0.850   0.5
   14    -296.8104159590231461    -1.09e-02  7.13e-03  3.13e-02  1.60e-02  0.000   0.3
   15    -296.8304780586892662    -2.01e-02  1.96e-03  1.26e-02  2.97e-02  0.000   0.3
   16    -296.8388327364102111    -8.35e-03  1.06e-03  8.04e-03  1.98e-02  0.000   0.4
   17    -296.8426595726625123    -3.83e-03  7.19e-04  5.08e-03  1.38e-02  0.000   0.3
   18    -296.8444912334361447    -1.83e-03  5.59e-04  3.30e-03  1.00e-02  0.000   0.4
   19    -296.8454362436071392    -9.45e-04  5.88e-04  5.06e-03  6.21e-03  0.000   0.8
   20    -296.8458992687768045    -4.63e-04  5.51e-04  3.56e-03  4.66e-03  0.000   0.3
               *** Restarting incremental Fock matrix formation ***
                             ****Resetting DIIS****
Warning: op=0 Small HOMO/LUMO gap (   0.011) - skipping pre-diagonalization
         Will do a full diagonalization
   21    -296.8461498599162383    -2.51e-04  1.80e-03  1.18e-02  2.40e-03  0.000   0.4
   22    -296.8446894017325235     1.46e-03  8.30e-04  5.87e-03  1.16e-02  0.000   0.4
   23    -296.8459654625585813    -1.28e-03  3.69e-04  1.99e-03  5.39e-03  0.000   0.3
   24    -296.8462317028763096    -2.66e-04  2.67e-04  1.52e-03  2.85e-03  0.000   0.4
   25    -296.8463113721002742    -7.97e-05  2.11e-04  1.41e-03  1.50e-03  0.000   0.3
                              *** Initializing SOSCF ***
---------------------------------------S-O-S-C-F--------------------------------------
Iteration    Energy (Eh)           Delta-E    RMSDP     MaxDP     MaxGrad    Time(sec)
--------------------------------------------------------------------------------------
   26    -296.8463284601360215    -1.71e-05  1.71e-04  8.68e-04  8.40e-04     0.8
               *** Restarting incremental Fock matrix formation ***
   27    -296.8463423828057444    -1.39e-05  1.17e-04  7.60e-04  1.38e-04     0.5
   28    -296.8463406726598919     1.71e-06  7.09e-05  4.19e-04  2.03e-04     0.3
   29    -296.8463441153905364    -3.44e-06  9.23e-05  8.14e-04  9.62e-05     0.3
   30    -296.8463428124599091     1.30e-06  5.77e-05  5.12e-04  1.87e-04     0.6
   31    -296.8463450570193913    -2.24e-06  6.32e-05  4.22e-04  5.95e-05     0.7
   32    -296.8463447691202077     2.88e-07  3.99e-05  2.65e-04  1.21e-04     0.5
   33    -296.8463454208138614    -6.52e-07  4.33e-05  3.00e-04  3.66e-05     0.5
   34    -296.8463451665803063     2.54e-07  2.40e-05  2.27e-04  6.22e-05     0.5
   35    -296.8463455261702961    -3.60e-07  2.27e-05  2.89e-04  2.19e-05     2.0
   36    -296.8463454434257187     8.27e-08  1.54e-05  1.86e-04  4.45e-05     0.6
   37    -296.8463455635987316    -1.20e-07  7.43e-06  5.60e-05  6.95e-06     0.6
   38    -296.8463455559278259     7.67e-09  4.58e-06  3.70e-05  1.25e-05     0.4
                 **** Energy Check signals convergence ****

               *****************************************************
               *                     SUCCESS                       *
               *           SCF CONVERGED AFTER  38 CYCLES          *
               *****************************************************

             **** ENERGY FILE WAS UPDATED (quasi_planar_nn1.70_perturb2.en.tmp) ****

----------------
TOTAL SCF ENERGY
----------------

Total Energy       :       -296.84634556957400 Eh           -8077.59972 eV

Components:
Nuclear Repulsion  :        262.73540007174716 Eh            7149.39370 eV
Electronic Energy  :       -559.58174564132105 Eh          -15226.99342 eV
One Electron Energy:       -913.71481168929677 Eh          -24863.44406 eV
Two Electron Energy:        354.13306604797566 Eh            9636.45063 eV

Virial components:
Potential Energy   :       -587.62699670820393 Eh          -15990.14350 eV
Kinetic Energy     :        290.78065113862999 Eh            7912.54378 eV
Virial Ratio       :          2.02086003455592

DFT components:
N(Alpha)           :       29.999990823397 electrons
N(Beta)            :       29.999990823397 electrons
N(Total)           :       59.999981646794 electrons
E(X)               :      -45.087910692046 Eh       
E(C)               :       -1.873669040949 Eh       
E(XC)              :      -46.961579732995 Eh       

---------------
SCF CONVERGENCE
---------------

  Last Energy change         ...   -7.6709e-09  Tolerance :   1.0000e-08
  Last MAX-Density change    ...    3.6963e-05  Tolerance :   1.0000e-07
  Last RMS-Density change    ...    4.5761e-06  Tolerance :   5.0000e-09
  Last DIIS Error            ...    8.4011e-04  Tolerance :   5.0000e-07
  Last Orbital Gradient      ...    1.2538e-05  Tolerance :   1.0000e-05
  Last Orbital Rotation      ...    3.4219e-05  Tolerance :   1.0000e-05


----------------
ORBITAL ENERGIES
----------------

  NO   OCC          E(Eh)            E(eV) 
   0   2.0000      -6.668779      -181.4667 
   1   2.0000      -6.664373      -181.3468 
   2   2.0000      -6.661946      -181.2808 
   3   2.0000      -6.656600      -181.1353 
   4   2.0000      -6.656329      -181.1279 
   5   2.0000      -6.655566      -181.1072 
   6   2.0000      -6.649127      -180.9319 
   7   2.0000      -6.636691      -180.5935 
   8   2.0000      -6.616342      -180.0398 
   9   2.0000      -6.613021      -179.9494 
  10   2.0000      -6.611181      -179.8994 
  11   2.0000      -6.597950      -179.5393 
  12   2.0000      -0.552623       -15.0376 
  13   2.0000      -0.505788       -13.7632 
  14   2.0000      -0.476726       -12.9724 
  15   2.0000      -0.446062       -12.1380 
  16   2.0000      -0.433408       -11.7936 
  17   2.0000      -0.413172       -11.2430 
  18   2.0000      -0.365412        -9.9434 
  19   2.0000      -0.352644        -9.5959 
  20   2.0000      -0.314832        -8.5670 
  21   2.0000      -0.298049        -8.1103 
  22   2.0000      -0.284001        -7.7281 
  23   2.0000      -0.268520        -7.3068 
  24   2.0000      -0.259664        -7.0658 
  25   2.0000      -0.255316        -6.9475 
  26   2.0000      -0.235952        -6.4206 
  27   2.0000      -0.216977        -5.9043 
  28   2.0000      -0.208601        -5.6763 
  29   2.0000      -0.204892        -5.5754 
  30   0.0000      -0.193181        -5.2567 
  31   0.0000      -0.175066        -4.7638 
  32   0.0000      -0.167200        -4.5498 
  33   0.0000      -0.163834        -4.4582 
  34   0.0000      -0.155817        -4.2400 
  35   0.0000      -0.149661        -4.0725 
  36   0.0000      -0.136641        -3.7182 
  37   0.0000      -0.125531        -3.4159 
  38   0.0000      -0.112774        -3.0687 
  39   0.0000      -0.103950        -2.8286 
  40   0.0000      -0.101563        -2.7637 
*Only the first 10 virtual orbitals were printed.

                    ********************************
                    * MULLIKEN POPULATION ANALYSIS *
                    ********************************

-----------------------
MULLIKEN ATOMIC CHARGES
-----------------------
   0 B :   -0.198625
   1 B :   -0.053904
   2 B :   -0.157787
   3 B :    0.032435
   4 B :    0.028399
   5 B :    0.087052
   6 B :   -0.111646
   7 B :    0.025690
   8 B :    0.087758
   9 B :    0.125308
  10 B :    0.074702
  11 B :    0.060619
Sum of atomic charges:   -0.0000000

--------------------------------
MULLIKEN REDUCED ORBITAL CHARGES
--------------------------------
  0 B s       :     3.167233  s :     3.167233
      pz      :     0.585914  p :     2.006588
      px      :     0.683378
      py      :     0.737297
      dz2     :     0.002708  d :     0.024805
      dxz     :     0.003578
      dyz     :     0.000732
      dx2y2   :     0.008969
      dxy     :     0.008818

  1 B s       :     3.117611  s :     3.117611
      pz      :     0.667512  p :     1.906362
      px      :     0.572799
      py      :     0.666051
      dz2     :     0.003573  d :     0.029932
      dxz     :     0.003403
      dyz     :     0.002849
      dx2y2   :     0.009880
      dxy     :     0.010227

  2 B s       :     3.063728  s :     3.063728
      pz      :     0.429499  p :     2.066017
      px      :     0.874578
      py      :     0.761940
      dz2     :     0.002583  d :     0.028042
      dxz     :     0.002825
      dyz     :     0.003132
      dx2y2   :     0.009655
      dxy     :     0.009846

  3 B s       :     3.321712  s :     3.321712
      pz      :     0.451326  p :     1.626713
      px      :     0.527571
      py      :     0.647816
      dz2     :     0.001954  d :     0.019139
      dxz     :     0.002567
      dyz     :     0.000716
      dx2y2   :     0.008446
      dxy     :     0.005456

  4 B s       :     3.380898  s :     3.380898
      pz      :     0.388455  p :     1.575819
      px      :     0.652668
      py      :     0.534695
      dz2     :     0.001553  d :     0.014885
      dxz     :     0.000546
      dyz     :     0.001959
      dx2y2   :     0.004908
      dxy     :     0.005918

  5 B s       :     3.567450  s :     3.567450
      pz      :     0.256834  p :     1.331847
      px      :     0.608348
      py      :     0.466664
      dz2     :     0.001657  d :     0.013652
      dxz     :     0.001457
      dyz     :     0.001767
      dx2y2   :     0.002566
      dxy     :     0.006204

  6 B s       :     3.266192  s :     3.266192
      pz      :     0.527573  p :     1.817917
      px      :     0.661529
      py      :     0.628814
      dz2     :     0.002510  d :     0.027537
      dxz     :     0.001825
      dyz     :     0.004429
      dx2y2   :     0.008245
      dxy     :     0.010528

  7 B s       :     3.408905  s :     3.408905
      pz      :     0.400070  p :     1.547703
      px      :     0.448382
      py      :     0.699251
      dz2     :     0.001713  d :     0.017702
      dxz     :     0.002591
      dyz     :     0.000747
      dx2y2   :     0.006711
      dxy     :     0.005940

  8 B s       :     3.597015  s :     3.597015
      pz      :     0.210181  p :     1.301323
      px      :     0.422252
      py      :     0.668890
      dz2     :     0.001507  d :     0.013905
      dxz     :     0.000575
      dyz     :     0.001610
      dx2y2   :     0.006462
      dxy     :     0.003751

  9 B s       :     3.824113  s :     3.824113
      pz      :     0.170675  p :     1.040405
      px      :     0.462718
      py      :     0.407011
      dz2     :     0.001110  d :     0.010174
      dxz     :     0.000734
      dyz     :     0.001240
      dx2y2   :     0.003675
      dxy     :     0.003415

 10 B s       :     3.692481  s :     3.692481
      pz      :     0.269426  p :     1.220835
      px      :     0.578750
      py      :     0.372658
      dz2     :     0.001527  d :     0.011982
      dxz     :     0.000604
      dyz     :     0.000891
      dx2y2   :     0.004008
      dxy     :     0.004952

 11 B s       :     3.511421  s :     3.511421
      pz      :     0.367144  p :     1.414773
      px      :     0.502526
      py      :     0.545104
      dz2     :     0.001685  d :     0.013187
      dxz     :     0.001097
      dyz     :     0.000810
      dx2y2   :     0.004223
      dxy     :     0.005373



                     *******************************
                     * LOEWDIN POPULATION ANALYSIS *
                     *******************************

----------------------
LOEWDIN ATOMIC CHARGES
----------------------
   0 B :   -0.061550
   1 B :   -0.079402
   2 B :   -0.078360
   3 B :   -0.077302
   4 B :    0.054954
   5 B :    0.094657
   6 B :   -0.124492
   7 B :    0.074926
   8 B :    0.037454
   9 B :    0.045573
  10 B :    0.087964
  11 B :    0.025580

-------------------------------
LOEWDIN REDUCED ORBITAL CHARGES
-------------------------------
  0 B s       :     2.856481  s :     2.856481
      pz      :     0.571151  p :     2.148076
      px      :     0.851783
      py      :     0.725141
      dz2     :     0.007478  d :     0.056993
      dxz     :     0.006435
      dyz     :     0.001253
      dx2y2   :     0.020720
      dxy     :     0.021108

  1 B s       :     2.810320  s :     2.810320
      pz      :     0.643961  p :     2.196299
      px      :     0.677789
      py      :     0.874548
      dz2     :     0.009059  d :     0.072784
      dxz     :     0.006979
      dyz     :     0.006831
      dx2y2   :     0.024536
      dxy     :     0.025379

  2 B s       :     2.888069  s :     2.888069
      pz      :     0.434053  p :     2.125249
      px      :     0.900516
      py      :     0.790679
      dz2     :     0.007823  d :     0.065042
      dxz     :     0.005294
      dyz     :     0.005251
      dx2y2   :     0.025857
      dxy     :     0.020818

  3 B s       :     3.046907  s :     3.046907
      pz      :     0.467105  p :     1.984109
      px      :     0.686053
      py      :     0.830951
      dz2     :     0.005878  d :     0.046287
      dxz     :     0.004190
      dyz     :     0.001349
      dx2y2   :     0.020334
      dxy     :     0.014537

  4 B s       :     3.123979  s :     3.123979
      pz      :     0.389965  p :     1.789276
      px      :     0.740265
      py      :     0.659046
      dz2     :     0.004133  d :     0.031792
      dxz     :     0.000865
      dyz     :     0.003009
      dx2y2   :     0.010613
      dxy     :     0.013172

  5 B s       :     3.304605  s :     3.304605
      pz      :     0.266224  p :     1.575033
      px      :     0.753827
      py      :     0.554983
      dz2     :     0.003676  d :     0.025704
      dxz     :     0.002220
      dyz     :     0.002502
      dx2y2   :     0.003969
      dxy     :     0.013338

  6 B s       :     2.891099  s :     2.891099
      pz      :     0.556908  p :     2.164105
      px      :     0.831251
      py      :     0.775947
      dz2     :     0.007268  d :     0.069288
      dxz     :     0.003997
      dyz     :     0.008909
      dx2y2   :     0.017837
      dxy     :     0.031277

  7 B s       :     3.105851  s :     3.105851
      pz      :     0.406835  p :     1.780249
      px      :     0.524523
      py      :     0.848892
      dz2     :     0.004954  d :     0.038974
      dxz     :     0.003930
      dyz     :     0.001409
      dx2y2   :     0.015672
      dxy     :     0.013009

  8 B s       :     3.348792  s :     3.348792
      pz      :     0.224787  p :     1.584523
      px      :     0.533729
      py      :     0.826007
      dz2     :     0.003896  d :     0.029231
      dxz     :     0.000811
      dyz     :     0.002647
      dx2y2   :     0.015515
      dxy     :     0.006362

  9 B s       :     3.644613  s :     3.644613
      pz      :     0.191846  p :     1.291200
      px      :     0.583147
      py      :     0.516207
      dz2     :     0.002357  d :     0.018613
      dxz     :     0.001129
      dyz     :     0.001983
      dx2y2   :     0.006604
      dxy     :     0.006541

 10 B s       :     3.463922  s :     3.463922
      pz      :     0.274047  p :     1.424703
      px      :     0.702840
      py      :     0.447816
      dz2     :     0.003611  d :     0.023411
      dxz     :     0.000925
      dyz     :     0.001056
      dx2y2   :     0.006734
      dxy     :     0.011084

 11 B s       :     3.260560  s :     3.260560
      pz      :     0.372626  p :     1.685280
      px      :     0.637639
      py      :     0.675014
      dz2     :     0.004465  d :     0.028581
      dxz     :     0.001484
      dyz     :     0.001183
      dx2y2   :     0.008594
      dxy     :     0.012855



                      *****************************
                      * MAYER POPULATION ANALYSIS *
                      *****************************

  NA   - Mulliken gross atomic population
  ZA   - Total nuclear charge
  QA   - Mulliken gross atomic charge
  VA   - Mayer's total valence
  BVA  - Mayer's bonded valence
  FA   - Mayer's free valence

  ATOM       NA         ZA         QA         VA         BVA        FA
  0 B      5.1986     5.0000    -0.1986     3.6116     3.6116     0.0000
  1 B      5.0539     5.0000    -0.0539     3.4638     3.4638    -0.0000
  2 B      5.1578     5.0000    -0.1578     3.5194     3.5194    -0.0000
  3 B      4.9676     5.0000     0.0324     3.1301     3.1301    -0.0000
  4 B      4.9716     5.0000     0.0284     3.0198     3.0198     0.0000
  5 B      4.9129     5.0000     0.0871     2.5353     2.5353     0.0000
  6 B      5.1116     5.0000    -0.1116     3.3717     3.3717    -0.0000
  7 B      4.9743     5.0000     0.0257     3.0042     3.0042     0.0000
  8 B      4.9122     5.0000     0.0878     2.4032     2.4032    -0.0000
  9 B      4.8747     5.0000     0.1253     1.7957     1.7957    -0.0000
 10 B      4.9253     5.0000     0.0747     2.2259     2.2259    -0.0000
 11 B      4.9394     5.0000     0.0606     2.7298     2.7298     0.0000

  Mayer bond orders larger than 0.100000
B(  0-B ,  1-B ) :   0.3998 B(  0-B ,  2-B ) :   1.1320 B(  0-B ,  3-B ) :   0.6619 
B(  0-B ,  4-B ) :   0.4839 B(  0-B , 10-B ) :   0.2408 B(  0-B , 11-B ) :   0.4779 
B(  1-B ,  2-B ) :   0.8059 B(  1-B ,  4-B ) :   0.1005 B(  1-B ,  5-B ) :   0.3679 
B(  1-B ,  6-B ) :   0.9959 B(  1-B ,  7-B ) :   0.5149 B(  1-B ,  8-B ) :   0.1039 
B(  2-B ,  7-B ) :   0.1369 B(  2-B ,  8-B ) :   0.4530 B(  2-B ,  9-B ) :   0.3864 
B(  2-B , 10-B ) :   0.2841 B(  3-B ,  4-B ) :   1.0952 B(  3-B , 10-B ) :   0.1511 
B(  3-B , 11-B ) :   0.8808 B(  4-B ,  5-B ) :   0.7903 B(  4-B , 11-B ) :   0.1366 
B(  5-B ,  6-B ) :   0.7906 B(  5-B ,  7-B ) :   0.1037 B(  6-B ,  7-B ) :   1.0897 
B(  7-B ,  8-B ) :   0.7906 B(  7-B , 11-B ) :   0.1006 B(  8-B ,  9-B ) :   0.5663 
B(  8-B , 10-B ) :   0.1077 B(  9-B , 10-B ) :   0.4260 B( 10-B , 11-B ) :   0.7354 


-------
TIMINGS
-------

Total SCF time: 0 days 0 hours 0 min 23 sec 

Total time                  ....      23.032 sec
Sum of individual times     ....      22.357 sec  ( 97.1%)

SCF preparation             ....       0.644 sec  (  2.8%)
Fock matrix formation       ....      15.956 sec  ( 69.3%)
  Startup                   ....       0.103 sec  (  0.6% of F)
  Split-RI-J                ....       4.673 sec  ( 29.3% of F)
  XC integration            ....      10.007 sec  ( 62.7% of F)
    XC Preparation          ....       0.000 sec  (  0.0% of XC)
    Basis function eval.    ....       1.633 sec  ( 16.3% of XC)
    Density eval.           ....       0.958 sec  (  9.6% of XC)
    XC-Functional eval.     ....       0.226 sec  (  2.3% of XC)
    XC-Potential eval.      ....       1.120 sec  ( 11.2% of XC)
Diagonalization             ....       0.000 sec  (  0.0%)
Density matrix formation    ....       0.807 sec  (  3.5%)
Total Energy calculation    ....       0.739 sec  (  3.2%)
Population analysis         ....       0.080 sec  (  0.3%)
Orbital Transformation      ....       0.060 sec  (  0.3%)
Orbital Orthonormalization  ....       0.000 sec  (  0.0%)
DIIS solution               ....       3.220 sec  ( 14.0%)
SOSCF solution              ....       0.851 sec  (  3.7%)
Finished LeanSCF after  23.1 sec

Maximum memory used throughout the entire LEANSCF-calculation: 9.8 MB


-------------------------------------------------------------------------------
                          DFT DISPERSION CORRECTION                            
                                                                               
                              DFTD3 V3.1  Rev 1                                
                          USING Becke-Johnson damping                          
-------------------------------------------------------------------------------
The BP86 functional is recognized
Active option DFTDOPT                   ...         4   

molecular C6(AA) [au] = 10128.879669 


            DFT-D V3
 parameters
 s6 scaling factor         :     1.0000 
 a1 scaling factor         :     0.3946 
 s8 scaling factor         :     3.2822 
 a2 scaling factor         :     4.8516 
 ad hoc parameters k1-k3   :    16.0000     1.3333    -4.0000 

 Edisp/kcal,au: -32.658304337514  -0.052044315192 
 E6   /kcal   :  -9.613715649 
 E8   /kcal   : -23.044588688 
 % E8         :  70.562722577 

-------------------------   ----------------
Dispersion correction           -0.052044315
-------------------------   ----------------


-------------------------   --------------------
FINAL SINGLE POINT ENERGY      -296.898389884766
-------------------------   --------------------



           ************************************************************
           *        Program running with 8 parallel MPI-processes     *
           *              working on a common directory               *
           ************************************************************
------------------------------------------------------------------------------
                         ORCA SCF GRADIENT CALCULATION
------------------------------------------------------------------------------

Nuc. rep. gradient        (SHARK) ... done (  0.0 sec)
HCore & Overlap gradient  (SHARK) ... done (  0.1 sec)
Split-RIJ-J gradient      (SHARK) ... done (  0.4 sec)
XC gradient                       ... done (  1.2 sec)
Dispersion correction             ... done (  0.0 sec)

-------------------
DISPERSION GRADIENT
-------------------

   1   B   :    0.002135083    0.002199736   -0.000195737
   2   B   :   -0.000744767   -0.003871541   -0.001804406
   3   B   :   -0.001410151    0.003014326    0.000407761
   4   B   :   -0.003750865   -0.001103511    0.000739769
   5   B   :    0.000237224   -0.000602360   -0.000328859
   6   B   :   -0.000689260   -0.001477689    0.000579620
   7   B   :   -0.000180232   -0.000898421   -0.000187129
   8   B   :    0.004618661   -0.001430774    0.001501264
   9   B   :   -0.000367274    0.003543010   -0.000620378
  10   B   :   -0.000635018   -0.000751734    0.000013770
  11   B   :    0.002992666    0.001148357   -0.000260392
  12   B   :   -0.002206068    0.000230601    0.000154714

Difference to translation invariance:
           :    0.0000000000    0.0000000000   -0.0000000000

Difference to rotation invariance:
           :   -0.0000000000   -0.0000000000    0.0000000000

Norm of the Dispersion gradient    ...    0.0107082760
RMS gradient                       ...    0.0017847127
MAX gradient                       ...    0.0046186614

------------------
CARTESIAN GRADIENT
------------------

   1   B   :   -0.033725390   -0.010384553    0.006614898
   2   B   :   -0.001521618    0.034820898    0.014760632
   3   B   :    0.017685743   -0.006447147    0.011081460
   4   B   :    0.078807882    0.014700340   -0.013867515
   5   B   :    0.037874664    0.060191084    0.000430733
   6   B   :    0.010013180    0.050299860   -0.004694000
   7   B   :   -0.019524093    0.044423619   -0.001775658
   8   B   :   -0.071547542   -0.012044539   -0.005899664
   9   B   :   -0.046878270   -0.028082401    0.001175642
  10   B   :   -0.008447460   -0.043039049   -0.004597308
  11   B   :   -0.001970528   -0.047890013   -0.008436456
  12   B   :    0.039233431   -0.056548099    0.005207236

Difference to translation invariance:
           :    0.0000000000    0.0000000000   -0.0000000000

Difference to rotation invariance:
           :   -0.0000139212   -0.0000145442   -0.0000278760

Norm of the Cartesian gradient     ...    0.1930017461
RMS gradient                       ...    0.0321669577
MAX gradient                       ...    0.0788078821

-------
TIMINGS
-------

Total SCF gradient time     ....        1.700 sec

Densities                   ....       0.001 sec  (  0.1%)
One electron gradient       ....       0.052 sec  (  3.0%)
RI-J Coulomb gradient       ....       0.436 sec  ( 25.6%)
XC gradient                 ....       1.164 sec  ( 68.5%)

Maximum memory used throughout the entire SCFGRAD-calculation: 29.4 MB
------------------------------------------------------------------------------
                         ORCA GEOMETRY RELAXATION STEP
------------------------------------------------------------------------------

Reading the OPT-File                    .... done
Getting information on internals        .... done
Copying old internal coords+grads       .... done
Making the new internal coordinates     .... (2022 redundants) done
Validating the new internal coordinates .... (2022 redundants) done
Calculating the B-matrix                .... done
Calculating the G,G- and P matrices     .... done
Transforming gradient to internals      .... done
Projecting the internal gradient        .... done
Number of atoms                         ....  12
Number of internal coordinates          .... 122
Current Energy                          ....  -296.898389885 Eh
Current gradient norm                   ....     0.193001746 Eh/bohr
Maximum allowed component of the step   ....  0.300
Current trust radius                    ....  0.300
Evaluating the initial hessian          ....  (Almloef) done
Projecting the Hessian                  .... done
Forming the augmented Hessian           .... done
Diagonalizing the augmented Hessian     .... done
Last element of RFO vector              ....  0.765313530
Lowest eigenvalues of augmented Hessian:
 -0.179013346  0.010125258  0.010293827  0.010485696  0.010649206
Length of the computed step             ....  0.841037887
Warning: the length of the step is outside the trust region - taking restricted step instead
The input lambda is                     ....     0.009117
   iter:   5  x=   -0.036354  g=  508.454025 f(x)=    10.730787
   iter:  10  x=   -0.469202  g=    1.319668 f(x)=     0.179473
   iter:  15  x=   -0.634530  g=    0.250616 f(x)=     0.000000
The output lambda is                    ....    -0.634530 (16 iterations)
The final length of the internal step   ....  0.300000000
Converting the step to Cartesian space:
 Initial RMS(Int)=    0.0271607238
Transforming coordinates:
 Iter   0:  RMS(Cart)=    0.0690218346 RMS(Int)=    0.0271020386
done
Storing new coordinates                 .... done

                                .--------------------.
          ----------------------|Geometry convergence|-------------------------
          Item                value                   Tolerance       Converged
          ---------------------------------------------------------------------
          RMS gradient        0.0196835367            0.0001000000      NO
          MAX gradient        0.0924559398            0.0003000000      NO
          RMS step            0.0271607238            0.0020000000      NO
          MAX step            0.1250303473            0.0040000000      NO
          -------------------------------------------------------------------------
          ........................................................
          Max(Bonds)      0.0662      Max(Angles)    2.75
          Max(Dihed)        1.26      Max(Improp)    0.00
          ---------------------------------------------------------------------

The optimization has not yet converged - more geometry cycles are needed


    ---------------------------------------------------------------------------
                         Redundant Internal Coordinates
                            (Angstroem and degrees)

        Definition                    Value    dE/dq     Step     New-Value
    ----------------------------------------------------------------------------
     1. B(B   2,B   0)                1.6856  0.032448 -0.0202    1.6654   
     2. B(B   2,B   1)                1.8853  0.047157 -0.0349    1.8504   
     3. B(B   3,B   0)                2.1125  0.036898 -0.0292    2.0833   
     4. B(B   4,B   0)                2.4757  0.037685 -0.0305    2.4452   
     5. B(B   4,B   3)                1.8878  0.058904 -0.0399    1.8479   
     6. B(B   5,B   4)                2.2019  0.062352 -0.0473    2.1546   
     7. B(B   5,B   1)                2.4185  0.007225 -0.0084    2.4101   
     8. B(B   6,B   5)                2.1837  0.060933 -0.0443    2.1395   
     9. B(B   6,B   1)                1.6437  0.028682 -0.0176    1.6261   
    10. B(B   7,B   6)                1.9828  0.092456 -0.0662    1.9167   
    11. B(B   8,B   7)                2.0727  0.047485 -0.0342    2.0385   
    12. B(B   9,B   2)                2.6455  0.034247 -0.0297    2.6158   
    13. B(B   9,B   8)                2.4157  0.042859 -0.0330    2.3827   
    14. B(B  10,B   2)                2.7237  0.020331 -0.0179    2.7058   
    15. B(B  10,B   9)                2.5349  0.026325 -0.0203    2.5146   
    16. B(B  11,B  10)                2.1323  0.041572 -0.0305    2.1018   
    17. B(B  11,B   0)                2.3667  0.030755 -0.0256    2.3411   
    18. B(B  11,B   3)                2.2127  0.056100 -0.0425    2.1702   
    19. A(B   3,B   0,B   4)           47.79  0.007489   -0.44     47.34   
    20. A(B   2,B   0,B   4)          140.06 -0.007976    0.51    140.57   
    21. A(B   3,B   0,B  11)           58.88  0.006442   -0.48     58.41   
    22. A(B   4,B   0,B  11)          106.67  0.013930   -0.92    105.75   
    23. A(B   2,B   0,B   3)          170.18  0.000697   -0.09    170.08   
    24. A(B   2,B   0,B  11)          112.83 -0.005826    0.39    113.22   
    25. A(B   5,B   1,B   6)           61.59  0.016207   -1.22     60.38   
    26. A(B   2,B   1,B   6)          147.87 -0.009849    0.67    148.54   
    27. A(B   2,B   1,B   5)          138.74 -0.007726    0.61    139.35   
    28. A(B   0,B   2,B   9)          132.70  0.006055   -0.43    132.27   
    29. A(B   0,B   2,B   1)           77.09  0.012264   -0.96     76.13   
    30. A(B   1,B   2,B  10)          155.89  0.018126   -1.42    154.47   
    31. A(B   9,B   2,B  10)           56.32  0.000204    0.04     56.37   
    32. A(B   1,B   2,B   9)          146.62 -0.017520    1.31    147.94   
    33. A(B   0,B   2,B  10)           78.81  0.005821   -0.46     78.34   
    34. A(B   4,B   3,B  11)          142.54 -0.012828    0.86    143.40   
    35. A(B   0,B   3,B  11)           66.30 -0.006039    0.44     66.75   
    36. A(B   0,B   3,B   4)           76.24 -0.006786    0.42     76.65   
    37. A(B   0,B   4,B   5)           92.74 -0.003640    0.32     93.06   
    38. A(B   3,B   4,B   5)          146.86 -0.004441    0.34    147.20   
    39. A(B   0,B   4,B   3)           55.98 -0.000703    0.03     56.00   
    40. A(B   4,B   5,B   6)          128.25  0.009755   -0.59    127.66   
    41. A(B   1,B   5,B   4)           86.96  0.007321   -0.52     86.44   
    42. A(B   1,B   5,B   6)           41.46  0.002856   -0.10     41.36   
    43. A(B   1,B   6,B   7)           74.52  0.034866   -2.52     72.00   
    44. A(B   5,B   6,B   7)          147.63  0.015644   -1.20    146.44   
    45. A(B   1,B   6,B   5)           76.95 -0.019063    1.31     78.26   
    46. A(B   6,B   7,B   8)          141.12 -0.022465    1.51    142.62   
    47. A(B   7,B   8,B   9)          138.67 -0.020190    1.60    140.27   
    48. A(B   2,B   9,B  10)           63.40 -0.002815    0.23     63.62   
    49. A(B   2,B   9,B   8)           58.44  0.036924   -2.75     55.70   
    50. A(B   8,B   9,B  10)          121.08  0.033376   -2.46    118.62   
    51. A(B   9,B  10,B  11)          144.48  0.003214   -0.28    144.19   
    52. A(B   2,B  10,B  11)           87.89 -0.000123    0.05     87.94   
    53. A(B   2,B  10,B   9)           60.28  0.002611   -0.27     60.01   
    54. A(B   0,B  11,B  10)           80.47  0.000161    0.02     80.49   
    55. A(B   3,B  11,B  10)          135.04 -0.000349    0.06    135.11   
    56. A(B   0,B  11,B   3)           54.82 -0.000403    0.03     54.85   
    57. D(B   1,B   2,B   0,B   4)     -8.82  0.003589   -0.28     -9.10   
    58. D(B  10,B   2,B   0,B  11)      0.75 -0.001345    0.12      0.87   
    59. D(B   1,B   2,B   0,B   3)   -148.57  0.001710   -0.14   -148.71   
    60. D(B  10,B   2,B   1,B   6)    141.75 -0.000954    0.07    141.82   
    61. D(B  10,B   2,B   0,B   3)     31.89 -0.000619    0.04     31.93   
    62. D(B   0,B   2,B   1,B   6)    140.64  0.003835   -0.30    140.35   
    63. D(B   0,B   2,B   1,B   5)     23.35 -0.002786    0.26     23.61   
    64. D(B  10,B   2,B   0,B   4)    171.64  0.001260   -0.11    171.54   
    65. D(B   9,B   2,B   1,B   6)    -15.79 -0.006113    0.48    -15.31   
    66. D(B  10,B   2,B   1,B   5)     24.45 -0.007575    0.63     25.08   
    67. D(B   1,B   2,B   0,B  11)   -179.71  0.000984   -0.06   -179.77   
    68. D(B  11,B   3,B   0,B   2)    -33.83  0.000158    0.00    -33.83   
    69. D(B   4,B   3,B   0,B  11)    179.77 -0.000504    0.02    179.79   
    70. D(B  11,B   3,B   0,B   4)   -179.77  0.000504   -0.02   -179.79   
    71. D(B   4,B   3,B   0,B   2)    145.94 -0.000346    0.02    145.97   
    72. D(B   5,B   4,B   3,B  11)    -21.45  0.001256   -0.12    -21.57   
    73. D(B   0,B   4,B   3,B  11)      0.34  0.000643   -0.02      0.32   
    74. D(B   5,B   4,B   0,B  11)    168.07 -0.001536    0.08    168.15   
    75. D(B   5,B   4,B   0,B   3)    168.28 -0.001057    0.06    168.33   
    76. D(B   5,B   4,B   0,B   2)     -3.16 -0.003020    0.22     -2.94   
    77. D(B   5,B   4,B   3,B   0)    -21.79  0.000613   -0.09    -21.89   
    78. D(B   3,B   4,B   0,B  11)     -0.20 -0.000479    0.02     -0.18   
    79. D(B   3,B   4,B   0,B   2)   -171.44 -0.001962    0.17   -171.27   
    80. D(B   1,B   5,B   4,B   0)      9.60  0.002608   -0.18      9.42   
    81. D(B   1,B   5,B   4,B   3)     27.54  0.001901   -0.09     27.45   
    82. D(B   6,B   5,B   4,B   0)      5.54 -0.002778    0.19      5.73   
    83. D(B   4,B   5,B   1,B   6)   -175.18  0.005474   -0.39   -175.57   
    84. D(B   4,B   5,B   1,B   2)    -27.68  0.003246   -0.31    -28.00   
    85. D(B   6,B   5,B   1,B   2)    147.50 -0.002229    0.08    147.57   
    86. D(B   6,B   5,B   4,B   3)     23.48 -0.003484    0.28     23.76   
    87. D(B   7,B   6,B   1,B   2)     26.33  0.001002   -0.08     26.25   
    88. D(B   7,B   6,B   5,B   1)    -28.65 -0.010820    0.81    -27.84   
    89. D(B   7,B   6,B   5,B   4)    -22.52 -0.002976    0.26    -22.26   
    90. D(B   1,B   6,B   5,B   4)      6.13  0.007844   -0.55      5.58   
    91. D(B   5,B   6,B   1,B   2)   -138.22 -0.003015    0.22   -138.00   
    92. D(B   7,B   6,B   1,B   5)    164.55  0.004017   -0.30    164.25   
    93. D(B   8,B   7,B   6,B   5)     27.05  0.003780   -0.31     26.74   
    94. D(B   8,B   7,B   6,B   1)     -1.94  0.000606   -0.05     -1.98   
    95. D(B   9,B   8,B   7,B   6)    -39.88  0.015322   -1.26    -41.14   
    96. D(B   2,B   9,B   8,B   7)     34.62 -0.008556    0.80     35.42   
    97. D(B  10,B   9,B   8,B   7)     44.93 -0.003935    0.42     45.35   
    98. D(B  10,B   9,B   2,B   1)    169.19  0.010141   -0.79    168.40   
    99. D(B  10,B   9,B   2,B   0)     21.21  0.001129   -0.06     21.15   
   100. D(B   8,B   9,B   2,B  10)    170.13 -0.001163    0.12    170.25   
   101. D(B   8,B   9,B   2,B   1)    -20.68  0.008978   -0.67    -21.35   
   102. D(B   8,B   9,B   2,B   0)   -168.66 -0.000034    0.06   -168.60   
   103. D(B   2,B  10,B   9,B   8)     -9.82 -0.008567    0.67     -9.15   
   104. D(B  11,B  10,B   9,B   2)    -29.24  0.002147   -0.18    -29.42   
   105. D(B  11,B  10,B   9,B   8)    -39.06 -0.006420    0.49    -38.57   
[...]
      dyz     :     0.009126
      dx2y2   :     0.013336
      dxy     :     0.014874

  6 B s       :     3.365210  s :     3.365210
      pz      :     0.435727  p :     1.860962
      px      :     0.744977
      py      :     0.680259
      dz2     :     0.003771  d :     0.044735
      dxz     :     0.007106
      dyz     :     0.005490
      dx2y2   :     0.014343
      dxy     :     0.014025

  7 B s       :     3.194687  s :     3.194687
      pz      :     0.435741  p :     1.570982
      px      :     0.565902
      py      :     0.569339
      dz2     :     0.003340  d :     0.047647
      dxz     :     0.006728
      dyz     :     0.006731
      dx2y2   :     0.015526
      dxy     :     0.015322

  8 B s       :     3.364719  s :     3.364719
      pz      :     0.436976  p :     1.860988
      px      :     0.621183
      py      :     0.802828
      dz2     :     0.003791  d :     0.044714
      dxz     :     0.009564
      dyz     :     0.003084
      dx2y2   :     0.014920
      dxy     :     0.013355

  9 B s       :     3.365160  s :     3.365160
      pz      :     0.437860  p :     1.860283
      px      :     0.814455
      py      :     0.607967
      dz2     :     0.003904  d :     0.044727
      dxz     :     0.003064
      dyz     :     0.009680
      dx2y2   :     0.014722
      dxy     :     0.013357

 10 B s       :     3.194138  s :     3.194138
      pz      :     0.440915  p :     1.572081
      px      :     0.567792
      py      :     0.563373
      dz2     :     0.003429  d :     0.047735
      dxz     :     0.006878
      dyz     :     0.006848
      dx2y2   :     0.015365
      dxy     :     0.015216

 11 B s       :     3.365589  s :     3.365589
      pz      :     0.441515  p :     1.860257
      px      :     0.663686
      py      :     0.755056
      dz2     :     0.003959  d :     0.044730
      dxz     :     0.005942
      dyz     :     0.006973
      dx2y2   :     0.013938
      dxy     :     0.013917



                     *******************************
                     * LOEWDIN POPULATION ANALYSIS *
                     *******************************

----------------------
LOEWDIN ATOMIC CHARGES
----------------------
   0 B :   -0.058802
   1 B :   -0.058844
   2 B :   -0.058386
   3 B :   -0.000287
   4 B :    0.059724
   5 B :   -0.000626
   6 B :   -0.000701
   7 B :    0.060135
   8 B :   -0.000845
   9 B :   -0.000275
  10 B :    0.059174
  11 B :   -0.000267

-------------------------------
LOEWDIN REDUCED ORBITAL CHARGES
-------------------------------
  0 B s       :     2.558476  s :     2.558476
      pz      :     0.655769  p :     2.278139
      px      :     0.836898
      py      :     0.785472
      dz2     :     0.021242  d :     0.222187
      dxz     :     0.026002
      dyz     :     0.025746
      dx2y2   :     0.080082
      dxy     :     0.069115

  1 B s       :     2.558508  s :     2.558508
      pz      :     0.653254  p :     2.278252
      px      :     0.787281
      py      :     0.837717
      dz2     :     0.021020  d :     0.222084
      dxz     :     0.025082
      dyz     :     0.025422
      dx2y2   :     0.079230
      dxy     :     0.071330

  2 B s       :     2.558662  s :     2.558662
      pz      :     0.653748  p :     2.277816
      px      :     0.811236
      py      :     0.812832
      dz2     :     0.021060  d :     0.221909
      dxz     :     0.025469
      dyz     :     0.025326
      dx2y2   :     0.065559
      dxy     :     0.084494

  3 B s       :     2.787815  s :     2.787815
      pz      :     0.477787  p :     2.104361
      px      :     0.666002
      py      :     0.960572
      dz2     :     0.011287  d :     0.108111
      dxz     :     0.018333
      dyz     :     0.009416
      dx2y2   :     0.031547
      dxy     :     0.037528

  4 B s       :     2.735864  s :     2.735864
      pz      :     0.463055  p :     2.074818
      px      :     0.811087
      py      :     0.800676
      dz2     :     0.011426  d :     0.129594
      dxz     :     0.015035
      dyz     :     0.014792
      dx2y2   :     0.047037
      dxy     :     0.041304

  5 B s       :     2.787955  s :     2.787955
      pz      :     0.471787  p :     2.104519
      px      :     0.964580
      py      :     0.668152
      dz2     :     0.011362  d :     0.108152
      dxz     :     0.008452
      dyz     :     0.018415
      dx2y2   :     0.032122
      dxy     :     0.037803

  6 B s       :     2.787601  s :     2.787601
      pz      :     0.470246  p :     2.104952
      px      :     0.844110
      py      :     0.790596
      dz2     :     0.011264  d :     0.108148
      dxz     :     0.014930
      dyz     :     0.011658
      dx2y2   :     0.036226
      dxy     :     0.034071

  7 B s       :     2.736356  s :     2.736356
      pz      :     0.458428  p :     2.074099
      px      :     0.677112
      py      :     0.938559
      dz2     :     0.011473  d :     0.129409
      dxz     :     0.012636
      dyz     :     0.016203
      dx2y2   :     0.042878
      dxy     :     0.046219

  8 B s       :     2.787799  s :     2.787799
      pz      :     0.471949  p :     2.104934
      px      :     0.709695
      py      :     0.923290
      dz2     :     0.011236  d :     0.108113
      dxz     :     0.019343
      dyz     :     0.007481
      dx2y2   :     0.037352
      dxy     :     0.032701

  9 B s       :     2.788048  s :     2.788048
      pz      :     0.473291  p :     2.104080
      px      :     0.935454
      py      :     0.695335
      dz2     :     0.011365  d :     0.108147
      dxz     :     0.007419
      dyz     :     0.019771
      dx2y2   :     0.036664
      dxy     :     0.032928

 10 B s       :     2.735491  s :     2.735491
      pz      :     0.464358  p :     2.075616
      px      :     0.930320
      py      :     0.680938
      dz2     :     0.011412  d :     0.129719
      dxz     :     0.016735
      dyz     :     0.013367
      dx2y2   :     0.042882
      dxy     :     0.045322

 11 B s       :     2.788109  s :     2.788109
      pz      :     0.477614  p :     2.104023
      px      :     0.771221
      py      :     0.855188
      dz2     :     0.011317  d :     0.108135
      dxz     :     0.012850
      dyz     :     0.014981
      dx2y2   :     0.035123
      dxy     :     0.033865



                      *****************************
                      * MAYER POPULATION ANALYSIS *
                      *****************************

  NA   - Mulliken gross atomic population
  ZA   - Total nuclear charge
  QA   - Mulliken gross atomic charge
  VA   - Mayer's total valence
  BVA  - Mayer's bonded valence
  FA   - Mayer's free valence

  ATOM       NA         ZA         QA         VA         BVA        FA
  0 B      4.6445     5.0000     0.3555     2.8121     2.8121     0.0000
  1 B      4.6422     5.0000     0.3578     2.8082     2.8082    -0.0000
  2 B      4.6473     5.0000     0.3527     2.8158     2.8158     0.0000
  3 B      5.2706     5.0000    -0.2706     3.2782     3.2782     0.0000
  4 B      4.8141     5.0000     0.1859     3.3141     3.3141    -0.0000
  5 B      5.2719     5.0000    -0.2719     3.2778     3.2778     0.0000
  6 B      5.2709     5.0000    -0.2709     3.2784     3.2784     0.0000
  7 B      4.8133     5.0000     0.1867     3.3127     3.3127     0.0000
  8 B      5.2704     5.0000    -0.2704     3.2793     3.2793     0.0000
  9 B      5.2702     5.0000    -0.2702     3.2787     3.2787     0.0000
 10 B      4.8140     5.0000     0.1860     3.3150     3.3150     0.0000
 11 B      5.2706     5.0000    -0.2706     3.2778     3.2778     0.0000

  Mayer bond orders larger than 0.100000
B(  0-B ,  1-B ) :   0.4758 B(  0-B ,  2-B ) :   0.4777 B(  0-B ,  3-B ) :   0.5068 
B(  0-B ,  4-B ) :   0.4386 B(  0-B , 10-B ) :   0.4396 B(  0-B , 11-B ) :   0.5061 
B(  1-B ,  2-B ) :   0.4769 B(  1-B ,  4-B ) :   0.4392 B(  1-B ,  5-B ) :   0.5050 
B(  1-B ,  6-B ) :   0.5058 B(  1-B ,  7-B ) :   0.4373 B(  2-B ,  7-B ) :   0.4395 
B(  2-B ,  8-B ) :   0.5076 B(  2-B ,  9-B ) :   0.5070 B(  2-B , 10-B ) :   0.4399 
B(  3-B ,  4-B ) :   1.0804 B(  3-B , 11-B ) :   1.4827 B(  4-B ,  5-B ) :   1.0811 
B(  5-B ,  6-B ) :   1.4840 B(  6-B ,  7-B ) :   1.0805 B(  7-B ,  8-B ) :   1.0803 
B(  8-B ,  9-B ) :   1.4826 B(  9-B , 10-B ) :   1.0802 B( 10-B , 11-B ) :   1.0804 


-------
TIMINGS
-------

Total SCF time: 0 days 0 hours 0 min 3 sec 

Total time                  ....       3.251 sec
Sum of individual times     ....       2.865 sec  ( 88.1%)

SCF preparation             ....       0.784 sec  ( 24.1%)
Fock matrix formation       ....       1.523 sec  ( 46.9%)
  Startup                   ....       0.010 sec  (  0.6% of F)
  Split-RI-J                ....       0.539 sec  ( 35.4% of F)
  XC integration            ....       1.164 sec  ( 76.4% of F)
    Basis function eval.    ....       0.216 sec  ( 18.6% of XC)
    Density eval.           ....       0.165 sec  ( 14.2% of XC)
    XC-Functional eval.     ....       0.029 sec  (  2.5% of XC)
    XC-Potential eval.      ....       0.195 sec  ( 16.7% of XC)
Diagonalization             ....       0.000 sec  (  0.0%)
Density matrix formation    ....       0.250 sec  (  7.7%)
Total Energy calculation    ....       0.017 sec  (  0.5%)
Population analysis         ....       0.125 sec  (  3.8%)
Orbital Transformation      ....       0.016 sec  (  0.5%)
Orbital Orthonormalization  ....       0.000 sec  (  0.0%)
DIIS solution               ....       0.070 sec  (  2.2%)
SOSCF solution              ....       0.079 sec  (  2.4%)
Finished LeanSCF after   3.4 sec

Maximum memory used throughout the entire LEANSCF-calculation: 11.8 MB


-------------------------------------------------------------------------------
                          DFT DISPERSION CORRECTION                            
                                                                               
                              DFTD3 V3.1  Rev 1                                
                          USING Becke-Johnson damping                          
-------------------------------------------------------------------------------
The BP86 functional is recognized
Active option DFTDOPT                   ...         4   

molecular C6(AA) [au] = 4351.785884 


            DFT-D V3
 parameters
 s6 scaling factor         :     1.0000 
 a1 scaling factor         :     0.3946 
 s8 scaling factor         :     3.2822 
 a2 scaling factor         :     4.8516 
 ad hoc parameters k1-k3   :    16.0000     1.3333    -4.0000 

 Edisp/kcal,au: -20.736326053224  -0.033045435485 
 E6   /kcal   :  -5.976789599 
 E8   /kcal   : -14.759536454 
 % E8         :  71.177200901 

-------------------------   ----------------
Dispersion correction           -0.033045435
-------------------------   ----------------


-------------------------   --------------------
FINAL SINGLE POINT ENERGY      -297.750639143806
-------------------------   --------------------

                                *** OPTIMIZATION RUN DONE ***



           ************************************************************
           *        Program running with 8 parallel MPI-processes     *
           *              working on a common directory               *
           ************************************************************

------------------------------------------------------------------------------
                              ORCA PROPERTY CALCULATIONS
------------------------------------------------------------------------------

GBWName                                 ... quasi_planar_nn1.70_perturb2.gbw
Number of atoms                         ...     12
Number of basis functions               ...    168
Max core memory                         ...   2500 MB

Electric properties:
Dipole moment                           ... YES
Quadrupole moment                       ...  NO
Static polarizability (Dipole/Dipole)   ...  NO
Static polarizability (Dipole/Quad.)    ...  NO
Static polarizability (Quad./Quad.)     ...  NO
Static polarizability (Velocity)        ...  NO
Static hyperpolarizability              ...  NO

Atomic electric properties:
Dipole moment                           ...  NO
Quadrupole moment                       ...  NO
Static polarizability                   ...  NO

Choice of electric origin               ... Center of mass
Position of electric origin             ...    -0.102284     0.038098     0.087772

General magnetic properties:
Magnetizability                         ...  NO

EPR properties:
g-Tensor (aka g-matrix)                 ...  NO
Zero-Field splitting spin-orbit         ...  NO
Zero-field splitting spin-spin          ...  NO
Hyperfine couplings                     ...  NO (   0 nuclei)
Quadrupole couplings                    ...  NO (   0 nuclei)
Contact density                         ...  NO (   0 nuclei)

NMR properties:
Chemical shifts                         ...  NO (   0 nuclei)
Spin-rotation constants                 ...  NO (   0 nuclei)
Spin-spin couplings                     ...  NO (   0 nuclei,    0 pairs)

Choice of magnetic origin               ... GIAO
Position of magnetic origin             ...     0.000000     0.000000     0.000000

Properties with geometric perturbations:
SCF Hessian                             ...  NO
IR spectrum                             ...  NO
VCD spectrum                            ...  NO
X-ray spectroscopy properties:
SCF XES/XAS/RIXS spectra                ...  NO

SCF SOC stabilization energy            ...  NO
Diagonal Born-Oppenheimer correction    ...  NO

-------------
DIPOLE MOMENT
-------------

Method             : SCF
Type of density    : Electron Density
Multiplicity       :   1
Irrep              :   0
Energy             :  -297.7175937083212034 Eh
Basis              : AO
                                X                 Y                 Z
Electronic contribution:      0.012753925      -0.006296101       0.773245671
Nuclear contribution   :      0.000000000       0.000000000      -0.000000000
                        -----------------------------------------
Total Dipole Moment    :      0.012753925      -0.006296101       0.773245671
                        -----------------------------------------
Magnitude (a.u.)       :      0.773376474
Magnitude (Debye)      :      1.965766776



--------------------
Rotational spectrum 
--------------------
 
Rotational constants in cm-1:             0.058805             0.058804             0.030087 
Rotational constants in MHz :          1762.926577          1762.889842           901.975563 

Dipole components along the rotational axes: 
x,y,z [a.u.] :     0.000141    -0.000249     0.773376 
x,y,z [Debye]:     0.000358    -0.000633     1.965767 

 

Dipole moment calculation done in   0.0 sec 

Maximum memory used throughout the entire PROP-calculation: 9.5 MB

--------------------------------
SUGGESTED CITATIONS FOR THIS RUN
--------------------------------

Below you find a list of papers that are relevant to this ORCA run
We neither can nor want to force you to cite these papers, but we appreciate if you do
You receive ORCA, which is the product of decades of hard work by many enthusiastic individuals, for free
The only thing we kindly ask in return is that you cite our papers,
We deeply appreciate it, if you show your appreciation for ORCA by not just citing the generic ORCA reference.

Please note that relegating all ORCA citations to the supporting information does *not* help us.
SI sections are not indexed - citations you put there will not count into any citation statistics
But we need these citations in order to attract the funding resources that allow us to do what we are doing

Therefore, if you are a happy ORCA user, please consider citing a few of the papers listed below in the main body of your paper

In addition to the list printed below, the program has created the file quasi_planar_nn1.70_perturb2.bibtex that contains the list in bibtex format
You can import this file easily into all common literature databanks and citation aid programs

It goes without saying that in many instances, there are alternative algorithms to achieve similar
results as the ones you have gotten from ORCA. It is, of course, also the case that in some instances
ORCA just re-implements algorithms worked out by others. We are fully aware of that and we are also
fully appreciative of our colleagues work. Hence this citation list should not be read as indicating
that the listed papers, which are focused on our own work, are the only ones worth citing. It simply
meant to make it easier for users to cite ORCA specific papers. It is not a substitute for doing your
own literature research and citing the relevant literature in a scientifically appropriate manner.

List of essential papers. We consider these as the minimum necessary citations

  1. Neese, F.
     Software update: the ORCA program system, version 6.0
     WIRES Comput. Molec. Sci. 2025 15(1), e70019
     doi.org/10.1002/wcms.70019

List of papers to cite with high priority. The work reported in these papers was absolutely
necessary for this run to complete.
Our perspective: the developers of density functionals and basis sets usually get cited in chemistry papers
Good! But without the algorithms to do something with them, the functionals or basis sets would not do anything.
Hence, in our opinion, the algorithm design and method developments papers are equally worthy of getting cited

  1. Neese, F.
     An improvement of the resolution of the identity approximation for the formation of the Coulomb matrix
     J. Comp. Chem. 2003 24(14), 1740-1747
     doi.org/10.1002/jcc.10318
  2. Grimme, S.; Antony, J.; Ehrlich, S.; Krieg, H.
     A consistent and accurate ab initio parametrization of density functional dispersion correction (DFT-D) for the 94 elements H-Pu
     J. Chem. Phys. 2010 132 , 154104
     doi.org/10.1063/1.3382344
  3. Grimme, S.; Ehrlich, S.; Goerigk, L.
     Effect of the damping function in dispersion corrected density functional theory
     J. Comput. Chem. 2011 32(7), 1456-1465
     doi.org/10.1002/jcc.21759
  4. Neese, F.
     The SHARK Integral Generation and Digestion System
     J. Comp. Chem. 2022 44(3), 381
     doi.org/10.1002/jcc.26942

List of suggested additional citations. These are papers that are important in the 'surrounding' of 
of this run, or papers that preceded the highly important papers. If you like your results we are grateful for a citation.

  1. Neese, F.
     The ORCA program system
     WIRES Comput. Molec. Sci. 2012 2(1), 73-78
     doi.org/10.1002/wcms.81
  2. Neese, F.
     Software update: the ORCA program system, version 4.0
     WIRES Comput. Molec. Sci. 2018 8(1), 1-6
     doi.org/10.1002/wcms.1327
  3. Neese, F.; Wennmohs, F.; Becker, U.; Riplinger, C.
     The ORCA quantum chemistry program package
     J. Chem. Phys. 2020 152(22), 224108
     doi.org/10.1063/5.0004608
  4. Neese, F.
     Software update: The ORCA program system—Version 5.0
     WIRES Comput. Molec. Sci. 2022 12(1), e1606
     doi.org/10.1002/wcms.1606

List of optional additional citations

  1. Neese, F.
     Approximate second-order SCF convergence for spin unrestricted wavefunctions
     Chem. Phys. Lett. 2000 325(1-3), 93-98
     doi.org/10.1016/s0009-2614(00)00662-x

Timings for individual modules:

Sum of individual times          ...      537.441 sec (=   8.957 min)
Startup calculation              ...       72.879 sec (=   1.215 min)  13.6 %
SCF iterations                   ...      364.830 sec (=   6.080 min)  67.9 %
Property calculations            ...        0.868 sec (=   0.014 min)   0.2 %
SCF Gradient evaluation          ...       98.477 sec (=   1.641 min)  18.3 %
Geometry relaxation              ...        0.387 sec (=   0.006 min)   0.1 %
                             ****ORCA TERMINATED NORMALLY****
TOTAL RUN TIME: 0 days 0 hours 9 minutes 32 seconds 462 msec
