
                                 *****************
                                 * O   R   C   A *
                                 *****************

                                            #,                                       
                                            ###                                      
                                            ####                                     
                                            #####                                    
                                            ######                                   
                                           ########,                                 
                                     ,,################,,,,,                         
                               ,,#################################,,                 
                          ,,##########################################,,             
                       ,#########################################, ''#####,          
                    ,#############################################,,   '####,        
                  ,##################################################,,,,####,       
                ,###########''''           ''''###############################       
              ,#####''   ,,,,##########,,,,          '''####'''          '####       
            ,##' ,,,,###########################,,,                        '##       
           ' ,,###''''                  '''############,,,                           
         ,,##''                                '''############,,,,        ,,,,,,###''
      ,#''                                            '''#######################'''  
     '                                                          ''''####''''         
             ,#######,   #######,   ,#######,      ##                                
            ,#'     '#,  ##    ##  ,#'     '#,    #''#        ,####,    ,#,          
            ##       ##  ##   ,#'  ##            #'  '#       #'       ,# #          
            ##       ##  #######   ##           ,######,      #####,      #          
            '#,     ,#'  ##    ##  '#,     ,#' ,#      #,     #,   #      #          
             '#######'   ##     ##  '#######'  #'      '#     '####' #    #          



                #########################################################
                #                        -***-                          #
                #          Department of theory and spectroscopy        #
                #                                                       #
                #                      Frank Neese                      #
                #                                                       #
                #     Directorship, Architecture, Infrastructure        #
                #                    SHARK, DRIVERS                     #
                #        Core code/Algorithms in most modules           #
                #                                                       #
                #        Max Planck Institute fuer Kohlenforschung      #
                #                Kaiser Wilhelm Platz 1                 #
                #                 D-45470 Muelheim/Ruhr                 #
                #                      Germany                          #
                #                                                       #
                #                  All rights reserved                  #
                #                        -***-                          #
                #########################################################


                         Program Version 6.1.1  -  RELEASE   -
                                (GIT: $487d211c$)
                          ($2025-11-21 10:33:24 +0100$)
                                                                         
                                  - NO-DMRG VERSION -                    
                                                                         


 With contributions from (in alphabetic order):
[Max-Planck-Institut fuer Kohlenforschung]                               
  Daniel Aravena         : Magnetic Suceptibility                        
  Michael Atanasov       : Ab Initio Ligand Field Theory (pilot matlab implementation)
  Alexander A. Auer      : GIAO ZORA, VPT2 properties, NMR spectrum      
  Ute Becker             : All parallelization in ORCA, NUMFREQ, NUMCALC 
  Giovanni Bistoni       : ED, misc. LED, open-shell LED, HFLD           
  Dmytro Bykov           : pre 5.0 version of the SCF Hessian            
  Marcos Casanova-Páez   : Triplet and SCS-CIS(D). UHF-(DLPNO)-IP/EA/STEOM-CCSD. UHF-CVS-IP/STEOM-CCSD   
  Vijay G. Chilkuri      : MRCI spin determinant printing, contributions to CSF-ICE 
  Pauline Colinet        : FMM embedding                                 
  Dipayan Datta          : RHF DLPNO-CCSD density                        
  Achintya Kumar Dutta   : EOM-CC, STEOM-CC                              
  Nicolas Foglia         : Exact transition moments, OPA infrastructure, MCD improvements    
  Dmitry Ganyushin       : Spin-Orbit,Spin-Spin,Magnetic field MRCI      
  Miquel Garcia-Rates    : C-PCM and meta-GGA Hessian, CCSD/C-PCM, Gaussian charge scheme 
  Tiago L. C. Gouveia    : GS-ROHF, GS-ROCIS                             
  Yang Guo               : DLPNO-NEVPT2, F12-NEVPT2, CIM, IAO-localization        
  Andreas Hansen         : Spin unrestricted coupled pair/coupled cluster methods 
  Ingolf Harden          : AUTO-CI MPn and infrastructure                
  Benjamin Helmich-Paris : MC-RPA, TRAH-(SCF,CASSCF), AVAS, COSX integrals, SCF dyn. polar., MC-PDFT, srDFT 
  Lee Huntington         : MR-EOM, pCC                                   
  Robert Izsak           : Overlap fitted RIJCOSX, COSX-SCS-MP3, EOM     
  Riya Kayal             : Wick's Theorem for AUTO-CI, AUTO-CI UHF-CCSDT 
  Emily Kempfer          : AUTO-CI RHF CISDT and CCSDT, approximate NEVPT4
  Christian Kollmar      : KDIIS, OOCD, Brueckner-CCSD(T), CCSD density, CASPT2, CASPT2-K, improved NEVPT2 
  Axel Koslowski         : Symmetry handling                             
  Simone Kossmann        : meta-GGA functionals, TD-DFT gradient, OOMP2, (MP2 Hessian; deprecated post 5.0) 
  Lucas Lang             : DCDCAS, Hyperfine gauge corrections, ICE-SOC+SSC
  Marvin Lechner         : AUTO-CI (C++ implementation), FIC-MRCC        
  Spencer Leger          : CASSCF response                               
  Dagmar Lenk            : GEPOL surface, SMD, ORCA-2-JSON               
  Dimitrios Liakos       : Extrapolation schemes; Compound Job, Property file
  Dimitrios Manganas     : Further ROCIS development; embedding schemes. LFT, Crystal Embedding 
  Dimitrios Pantazis     : SARC Basis sets                               
  Anastasios Papadopoulos: AUTO-CI, single reference methods and gradients 
  Taras Petrenko         : pre 6.0 DFT Hessian and TD-DFT gradient,  ECA, NRVS 
  Petra Pikulova         : Analytic Raman intensities                    
  Peter Pinski           : DLPNO-MP2, DLPNO-MP2 Gradient                 
  Shashank Vittal Rao    : ES-AILFT, MagRelax                            
  Christoph Reimann      : Effective Core Potentials                     
  Marius Retegan         : Local ZFS, SOC                                
  Christoph Riplinger    : Optimizer, TS searches, QM/MM, DLPNO-CCSD(T), (RO)-DLPNO pert. Triples 
  Michael Roemelt        : Original ROCIS implementation, recursive CI coupling coefficients
  Masaaki Saitow         : Open-shell DLPNO-CCSD energy and density      
  Barbara Sandhoefer     : DKH picture change effects                    
  Yorick L. A. Schmerwitz: GMF and freeze-and-release deltaSCF, NEB S-IDPP initial path                    
  Kantharuban Sivalingam : CASSCF convergence/infrastructure, NEVPT2, NEVPT3, NEVPT4(SD), FIC-MRCI and CEPA variants
  Bernardo de Souza      : ESD, SOC TD-DFT                               
  Georgi L. Stoychev     : AutoAux, RI-MP2 NMR, DLPNO-MP2 response, X2C  
  Van Anh Tran           : RI-MP2 g-tensors                              
  Willem Van den Heuvel  : Paramagnetic NMR                              
  Zikuan Wang            : NOTCH, Electric field optimization            
  Frank Wennmohs         : Technical directorship and infrastructure     
  Hang Xu                : AUTO-CI-Response properties                   
                                                                         
[FACCTs GmbH]                                                            
  Markus Bursch, Nicolas Foglia, Miquel Garcia-Rates, Ingolf Harden, Hagen Neugebauer, Anastasios Papadopoulos, 
  Christoph Riplinger, Bernardo de Souza, Georgi L. Stoychev                                                    
                                                                 
  APM, various basis sets, CI-OPT, improved COSX, DLPNO-Multilevel,           
  DOCKER, DRACO, updates on ESD, Fragmentator, GOAT, IRC, LR-CPCM, L-BFGS, MBIS, meta-GGA TD-DFT gradient, ML-optimized integration grids, 
  MM, NACMEs, nearIR, NEB, NEB-TS, NL-DFT gradient (VV10), 2- and 3-layer-ONIOM, interface openCOSMO-RS, QMMM,   
  Crystal-QMMM, RESP, rigid body optimization, SF, symmetry and pop. for TD-DFT, various functionals, SOLVATOR                                   
                                                                         
[Other institutions]                                                     
  V. Asgeirsson          : NEB                                           
  Christoph Bannwarth    : sTDA-DFT, sTD-DFT, PBEh-3c, B97-3c, D3        
  Giovanni Bistoni       : ETS/NOCV, ADLD/ADEX, COVALED                  
  Martin Brehm           : Molecular dynamics                            
  Ronald Cardenas        : ETS/NOCV                                      
  Martina Colucci        : COVALED                                       
  Sebastian Ehlert       : rSCAN, r2SCAN, r2SCAN-3c, D4, dhf basis sets  
  Marvin Friede          : D4 for Fr, Ra, Ac-Lr                          
  Lars Goerigk           : TD-DFT with DH, B97 family of functionals     
  Stefan Grimme          : VdW corrections, initial TS optimization, DFT functionals, gCP, sTDA/sTD-DF 
  Waldemar Hujo          : DFT-NL                                        
  H. Jonsson             : NEB                                           
  Holger Kruse           : gCP                                           
  Marcel Mueller         : wB97X-3c, vDZP basis set                      
  Hagen Neugebauer       : wr2SCAN, Native XTB                           
  Gianluca Regni         : ADLD/ADEX                                     
  Tobias Risthaus        : pre 6.0 range-separated hybrid DFT and stability analysis
  Lukas Wittmann         : regularized MP2, r2SCAN double-hybrids, wr2SCAN        
                                                                         
We gratefully acknowledge several colleagues who have allowed us to      
interface, adapt or use parts of their codes:                            
  Ed Valeev, F. Pavosevic, A. Kumar             : LibInt (2-el integral package), F12 methods 
  Garnet Chan, S. Sharma, J. Yang, R. Olivares  : DMRG                   
  Ulf Ekstrom                                   : XCFun DFT Library      
  Mihaly Kallay                                 : mrcc  (arbitrary order and MRCC methods)
  Frank Weinhold                                : gennbo (NPA and NBO analysis)           
  Simon Mueller                                 : openCOSMO-RS                            
  Christopher J. Cramer and Donald G. Truhlar   : smd solvation model                     
  S Lehtola, MJT Oliveira, MAL Marques          : LibXC Library                           
  Liviu Ungur et al                             : ANISO software                          


 Your calculation uses the libint2 library for the computation of 2-el integrals
 For citations please refer to: http://libint.valeyev.net

 Your ORCA version has been built with support for libXC version: 7.0.0
 For citations please refer to: https://libxc.gitlab.io

 This ORCA versions uses:
   CBLAS   interface :  Fast vector & matrix operations
   LAPACKE interface :  Fast linear algebra routines
   SCALAPACK package :  Parallel linear algebra routines
   Shared memory     :  Shared parallel matrices
   BLAS/LAPACK       :  OpenBLAS 0.3.29  USE64BITINT DYNAMIC_ARCH NO_AFFINITY Zen SINGLE_THREADED
        Core in use  :  Zen
   Copyright (c) 2011-2014, The OpenBLAS Project


  ***********************************
  * Starting time: Thu Apr 23 14:58:25 2026
  * Host name:     vmi3233575
  * Process ID:    1287184
  * Working dir.:  /root/b12_scan/jobs/hex_antiprism_nn1.80
  ***********************************

NOTE: MaxCore=2500 MB was set to SCF,MP2,MDCI,CIPSI,MRCI,RASCI and CIS
      => If you want to overwrite this, your respective input block should be placed after the MaxCore statement
Your calculation utilizes the atom-pairwise dispersion correction
with the Becke-Johnson damping scheme (D3BJ)


================================================================================

----- Orbital basis set information -----
Your calculation utilizes the basis: def2-SVP
   F. Weigend and R. Ahlrichs, Phys. Chem. Chem. Phys. 7, 3297 (2005).

----- AuxJ basis set information -----
Your calculation utilizes the auxiliary basis: def2/J
   H-Rn: F. Weigend, Phys. Chem. Chem. Phys. 8, 1057 (2006).
   Fr-Lr: K. Eichkorn, F. Weigend, O. Treutler, R. Ahlrichs; Theor. Chem. Acc. 97, 119 (1997).

================================================================================
                                        WARNINGS
                       Please study these warnings very carefully!
================================================================================


WARNING: Geometry Optimization
  ===> : Switching off AutoStart
         For restart on a previous wavefunction, please use MOREAD

================================================================================
                                       INPUT FILE
================================================================================
NAME = hex_antiprism_nn1.80.inp
|  1> ! BP86 def2-SVP def2/J RI Opt TightSCF D3BJ
|  2> ! SlowConv
|  3> 
|  4> %pal nprocs 8 end
|  5> %maxcore 2500
|  6> 
|  7> %geom
|  8>   MaxIter 300
|  9> end
| 10> 
| 11> * xyz 0 1
| 12> B      1.88904251     -0.00000000      0.75561701
| 13> B      0.94452126      1.63595880      0.75561701
| 14> B     -0.94452126      1.63595880      0.75561701
| 15> B     -1.88904251      0.00000000      0.75561701
| 16> B     -0.94452126     -1.63595880      0.75561701
| 17> B      0.94452126     -1.63595880      0.75561701
| 18> B      1.63595880      0.94452126     -0.75561701
| 19> B      0.00000000      1.88904251     -0.75561701
| 20> B     -1.63595880      0.94452126     -0.75561701
| 21> B     -1.63595880     -0.94452126     -0.75561701
| 22> B     -0.00000000     -1.88904251     -0.75561701
| 23> B      1.63595880     -0.94452126     -0.75561701
| 24> *
| 25> 
| 26>                          ****END OF INPUT****
================================================================================

                       *****************************
                       * Geometry Optimization Run *
                       *****************************

Geometry optimization settings:
Update method            Update   .... BFGS
Choice of coordinates    CoordSys .... (2022) Redundant Internals
Initial Hessian          InHess   .... Almloef's Model
Max. no of cycles        MaxIter  .... 300

Convergence Tolerances:
Energy Change            TolE     ....  5.0000e-06 Eh
Max. Gradient            TolMAXG  ....  3.0000e-04 Eh/bohr
RMS Gradient             TolRMSG  ....  1.0000e-04 Eh/bohr
Max. Displacement        TolMAXD  ....  4.0000e-03 bohr
RMS Displacement         TolRMSD  ....  2.0000e-03 bohr
Strict Convergence                .... False

------------------------------------------------------------------------------
                        ORCA OPTIMIZATION COORDINATE SETUP
------------------------------------------------------------------------------

The optimization will be done in redundant internal coordinates (2022)
Making redundant internal coordinates   ...  (2022 redundants) done
Evaluating the initial hessian          ...  (Almloef) done
Evaluating the coordinates              ...  done
Calculating the B-matrix                .... done
Calculating the G-matrix                .... done
The number of degrees of freedom        ....  240

    -----------------------------------------------------------------
                    Redundant Internal Coordinates


    -----------------------------------------------------------------
         Definition                    Initial Value    Approx d2E/dq
    -----------------------------------------------------------------
      1. B(B   1,B   0)                  1.8890         0.134024   
      2. B(B   2,B   1)                  1.8890         0.134024   
      3. B(B   3,B   2)                  1.8890         0.134024   
      4. B(B   4,B   3)                  1.8890         0.134024   
      5. B(B   5,B   4)                  1.8890         0.134024   
      6. B(B   5,B   0)                  1.8890         0.134024   
      7. B(B   6,B   0)                  1.8000         0.185885   
      8. B(B   6,B   1)                  1.8000         0.185885   
      9. B(B   7,B   6)                  1.8890         0.134024   
     10. B(B   7,B   2)                  1.8000         0.185885   
     11. B(B   7,B   1)                  1.8000         0.185885   
     12. B(B   8,B   7)                  1.8890         0.134024   
     13. B(B   8,B   3)                  1.8000         0.185885   
     14. B(B   8,B   2)                  1.8000         0.185885   
     15. B(B   9,B   3)                  1.8000         0.185885   
     16. B(B   9,B   8)                  1.8890         0.134024   
     17. B(B   9,B   4)                  1.8000         0.185885   
     18. B(B  10,B   9)                  1.8890         0.134024   
     19. B(B  10,B   5)                  1.8000         0.185885   
     20. B(B  10,B   4)                  1.8000         0.185885   
     21. B(B  11,B  10)                  1.8890         0.134024   
     22. B(B  11,B   6)                  1.8890         0.134024   
     23. B(B  11,B   5)                  1.8000         0.185885   
     24. B(B  11,B   0)                  1.8000         0.185885   
     25. A(B   1,B   0,B   5)          120.0000         0.268992   
     26. A(B   6,B   0,B  11)           63.3007         0.297719   
     27. A(B   5,B   0,B  11)           58.3497         0.282824   
     28. A(B   1,B   0,B   6)           58.3497         0.282824   
     29. A(B   1,B   0,B  11)          112.5899         0.282824   
     30. A(B   5,B   0,B   6)          112.5899         0.282824   
     31. A(B   0,B   1,B   6)           58.3497         0.282824   
     32. A(B   0,B   1,B   2)          120.0000         0.268992   
     33. A(B   2,B   1,B   7)           58.3497         0.282824   
     34. A(B   6,B   1,B   7)           63.3007         0.297719   
     35. A(B   2,B   1,B   6)          112.5899         0.282824   
     36. A(B   0,B   1,B   7)          112.5899         0.282824   
     37. A(B   1,B   2,B   3)          120.0000         0.268992   
     38. A(B   7,B   2,B   8)           63.3007         0.297719   
     39. A(B   1,B   2,B   7)           58.3497         0.282824   
     40. A(B   3,B   2,B   8)           58.3497         0.282824   
     41. A(B   3,B   2,B   7)          112.5899         0.282824   
     42. A(B   1,B   2,B   8)          112.5899         0.282824   
     43. A(B   2,B   3,B   8)           58.3497         0.282824   
     44. A(B   4,B   3,B   9)           58.3497         0.282824   
     45. A(B   4,B   3,B   8)          112.5899         0.282824   
     46. A(B   2,B   3,B   4)          120.0000         0.268992   
     47. A(B   8,B   3,B   9)           63.3007         0.297719   
     48. A(B   2,B   3,B   9)          112.5899         0.282824   
     49. A(B   5,B   4,B  10)           58.3497         0.282824   
     50. A(B   9,B   4,B  10)           63.3007         0.297719   
     51. A(B   3,B   4,B  10)          112.5899         0.282824   
     52. A(B   3,B   4,B   5)          120.0000         0.268992   
     53. A(B   5,B   4,B   9)          112.5899         0.282824   
     54. A(B   3,B   4,B   9)           58.3497         0.282824   
     55. A(B  10,B   5,B  11)           63.3007         0.297719   
     56. A(B   0,B   5,B  11)           58.3497         0.282824   
     57. A(B   0,B   5,B   4)          120.0000         0.268992   
     58. A(B   4,B   5,B  10)           58.3497         0.282824   
     59. A(B   0,B   5,B  10)          112.5899         0.282824   
     60. A(B   4,B   5,B  11)          112.5899         0.282824   
     61. A(B   0,B   6,B  11)           58.3497         0.282824   
     62. A(B   1,B   6,B  11)          112.5899         0.282824   
     63. A(B   0,B   6,B   1)           63.3007         0.297719   
     64. A(B   1,B   6,B   7)           58.3497         0.282824   
     65. A(B   0,B   6,B   7)          112.5899         0.282824   
     66. A(B   7,B   6,B  11)          120.0000         0.268992   
     67. A(B   6,B   7,B   8)          120.0000         0.268992   
     68. A(B   2,B   7,B   8)           58.3497         0.282824   
     69. A(B   1,B   7,B   8)          112.5899         0.282824   
     70. A(B   2,B   7,B   6)          112.5899         0.282824   
     71. A(B   1,B   7,B   6)           58.3497         0.282824   
     72. A(B   1,B   7,B   2)           63.3007         0.297719   
     73. A(B   2,B   8,B   7)           58.3497         0.282824   
     74. A(B   2,B   8,B   3)           63.3007         0.297719   
     75. A(B   7,B   8,B   9)          120.0000         0.268992   
     76. A(B   3,B   8,B   9)           58.3497         0.282824   
     77. A(B   2,B   8,B   9)          112.5899         0.282824   
     78. A(B   3,B   8,B   7)          112.5899         0.282824   
     79. A(B   8,B   9,B  10)          120.0000         0.268992   
     80. A(B   4,B   9,B  10)           58.3497         0.282824   
     81. A(B   3,B   9,B  10)          112.5899         0.282824   
     82. A(B   4,B   9,B   8)          112.5899         0.282824   
     83. A(B   3,B   9,B   8)           58.3497         0.282824   
     84. A(B   3,B   9,B   4)           63.3007         0.297719   
     85. A(B   5,B  10,B   9)          112.5899         0.282824   
     86. A(B   4,B  10,B   9)           58.3497         0.282824   
     87. A(B   4,B  10,B   5)           63.3007         0.297719   
     88. A(B   9,B  10,B  11)          120.0000         0.268992   
     89. A(B   5,B  10,B  11)           58.3497         0.282824   
     90. A(B   4,B  10,B  11)          112.5899         0.282824   
     91. A(B   0,B  11,B   5)           63.3007         0.297719   
     92. A(B   6,B  11,B  10)          120.0000         0.268992   
     93. A(B   5,B  11,B  10)           58.3497         0.282824   
     94. A(B   0,B  11,B  10)          112.5899         0.282824   
     95. A(B   5,B  11,B   6)          112.5899         0.282824   
     96. A(B   0,B  11,B   6)           58.3497         0.282824   
     97. D(B   2,B   1,B   0,B  11)     65.4144         0.010000   
     98. D(B   2,B   1,B   0,B   5)      0.0000         0.010000   
     99. D(B   6,B   1,B   0,B  11)    -34.0926         0.010000   
    100. D(B   2,B   1,B   0,B   6)     99.5070         0.010000   
    101. D(B   7,B   1,B   0,B   5)    -65.4144         0.010000   
    102. D(B   6,B   1,B   0,B   5)    -99.5070         0.010000   
    103. D(B   8,B   2,B   1,B   0)    -65.4144         0.010000   
    104. D(B   3,B   2,B   1,B   6)     65.4144         0.010000   
    105. D(B   3,B   2,B   1,B   0)      0.0000         0.010000   
    106. D(B   7,B   2,B   1,B   0)    -99.5070         0.010000   
    107. D(B   7,B   2,B   1,B   6)    -34.0926         0.010000   
    108. D(B   3,B   2,B   1,B   7)     99.5070         0.010000   
    109. D(B   4,B   3,B   2,B   8)     99.5070         0.010000   
    110. D(B   8,B   3,B   2,B   1)    -99.5070         0.010000   
    111. D(B   4,B   3,B   2,B   7)     65.4144         0.010000   
    112. D(B   4,B   3,B   2,B   1)      0.0000         0.010000   
    113. D(B   9,B   3,B   2,B   1)    -65.4144         0.010000   
    114. D(B   8,B   3,B   2,B   7)    -34.0926         0.010000   
    115. D(B   5,B   4,B   3,B   9)     99.5070         0.010000   
    116. D(B   9,B   4,B   3,B   2)    -99.5070         0.010000   
    117. D(B   5,B   4,B   3,B   2)      0.0000         0.010000   
    118. D(B   5,B   4,B   3,B   8)     65.4144         0.010000   
    119. D(B   9,B   4,B   3,B   8)    -34.0926         0.010000   
    120. D(B  10,B   4,B   3,B   2)    -65.4144         0.010000   
    121. D(B   4,B   5,B   0,B  11)    -99.5070         0.010000   
    122. D(B  10,B   5,B   0,B   6)     -0.0000         0.010000   
    123. D(B  10,B   5,B   0,B  11)    -34.0926         0.010000   
    124. D(B   4,B   5,B   0,B   6)    -65.4144         0.010000   
    125. D(B   4,B   5,B   0,B   1)      0.0000         0.010000   
    126. D(B   0,B   5,B   4,B   3)      0.0000         0.010000   
    127. D(B  10,B   5,B   0,B   1)     65.4144         0.010000   
    128. D(B  10,B   5,B   4,B   9)    -34.0926         0.010000   
    129. D(B   0,B   5,B   4,B  10)     99.5070         0.010000   
    130. D(B  10,B   5,B   4,B   3)    -99.5070         0.010000   
    131. D(B  11,B   5,B   4,B   3)    -65.4144         0.010000   
    132. D(B   0,B   5,B   4,B   9)     65.4144         0.010000   
    133. D(B  11,B   6,B   1,B   2)    -80.0319         0.010000   
    134. D(B   7,B   6,B   1,B   2)     32.2836         0.010000   
    135. D(B   7,B   6,B   1,B   0)    144.5992         0.010000   
    136. D(B   0,B   6,B   1,B   7)   -144.5992         0.010000   
    137. D(B   0,B   6,B   1,B   2)   -112.3155         0.010000   
    138. D(B  11,B   6,B   0,B   1)   -144.5992         0.010000   
    139. D(B   7,B   6,B   0,B   1)    -32.2836         0.010000   
    140. D(B   1,B   6,B   0,B  11)    144.5992         0.010000   
    141. D(B   1,B   6,B   0,B   5)    112.3155         0.010000   
    142. D(B  11,B   6,B   1,B   0)     32.2836         0.010000   
    143. D(B   7,B   6,B   0,B   5)     80.0319         0.010000   
    144. D(B   7,B   6,B   0,B  11)    112.3155         0.010000   
    145. D(B   1,B   7,B   6,B  11)     99.5070         0.010000   
    146. D(B   1,B   7,B   6,B   0)     34.0926         0.010000   
    147. D(B   8,B   7,B   2,B   1)    144.5992         0.010000   
    148. D(B   1,B   7,B   2,B   3)   -112.3155         0.010000   
    149. D(B   1,B   7,B   2,B   8)   -144.5992         0.010000   
    150. D(B   6,B   7,B   2,B   3)    -80.0319         0.010000   
    151. D(B   8,B   7,B   1,B   2)    -32.2836         0.010000   
    152. D(B   6,B   7,B   2,B   8)   -112.3155         0.010000   
    153. D(B   8,B   7,B   1,B   0)     80.0319         0.010000   
    154. D(B   6,B   7,B   1,B   2)   -144.5992         0.010000   
    155. D(B   6,B   7,B   2,B   1)     32.2836         0.010000   
    156. D(B   2,B   7,B   1,B   0)    112.3155         0.010000   
    157. D(B   2,B   7,B   1,B   6)    144.5992         0.010000   
    158. D(B   2,B   7,B   6,B   0)      0.0000         0.010000   
    159. D(B   6,B   7,B   1,B   0)    -32.2836         0.010000   
    160. D(B   8,B   7,B   6,B   0)    -65.4144         0.010000   
    161. D(B   2,B   7,B   6,B  11)     65.4144         0.010000   
    162. D(B   2,B   7,B   6,B   1)    -34.0926         0.010000   
    163. D(B   9,B   8,B   7,B   1)    -65.4144         0.010000   
    164. D(B   3,B   8,B   7,B   6)     65.4144         0.010000   
    165. D(B   3,B   8,B   7,B   2)    -34.0926         0.010000   
    166. D(B   3,B   8,B   7,B   1)     -0.0000         0.010000   
    167. D(B   2,B   8,B   7,B   6)     99.5070         0.010000   
    168. D(B   9,B   8,B   3,B   2)    144.5992         0.010000   
    169. D(B   7,B   8,B   3,B   9)   -112.3155         0.010000   
    170. D(B   7,B   8,B   3,B   4)    -80.0319         0.010000   
    171. D(B   7,B   8,B   3,B   2)     32.2836         0.010000   
    172. D(B   2,B   8,B   3,B   9)   -144.5992         0.010000   
    173. D(B   2,B   8,B   3,B   4)   -112.3155         0.010000   
    174. D(B   2,B   8,B   7,B   1)     34.0926         0.010000   
    175. D(B   9,B   8,B   2,B   3)    -32.2836         0.010000   
    176. D(B   7,B   8,B   2,B   1)    -32.2836         0.010000   
    177. D(B   3,B   8,B   2,B   7)    144.5992         0.010000   
    178. D(B   3,B   8,B   2,B   1)    112.3155         0.010000   
    179. D(B   9,B   8,B   2,B   1)     80.0319         0.010000   
    180. D(B   7,B   8,B   2,B   3)   -144.5992         0.010000   
    181. D(B  10,B   9,B   8,B   2)    -65.4144         0.010000   
    182. D(B   4,B   9,B   8,B   7)     65.4144         0.010000   
    183. D(B   4,B   9,B   8,B   3)    -34.0926         0.010000   
    184. D(B   4,B   9,B   8,B   2)      0.0000         0.010000   
    185. D(B   3,B   9,B   8,B   7)     99.5070         0.010000   
    186. D(B   3,B   9,B   8,B   2)     34.0926         0.010000   
    187. D(B  10,B   9,B   4,B   3)    144.5992         0.010000   
    188. D(B   8,B   9,B   4,B  10)   -112.3155         0.010000   
    189. D(B   8,B   9,B   4,B   5)    -80.0319         0.010000   
    190. D(B   8,B   9,B   4,B   3)     32.2836         0.010000   
    191. D(B   3,B   9,B   4,B  10)   -144.5992         0.010000   
    192. D(B   3,B   9,B   4,B   5)   -112.3155         0.010000   
    193. D(B  10,B   9,B   3,B   4)    -32.2836         0.010000   
    194. D(B  10,B   9,B   3,B   2)     80.0319         0.010000   
    195. D(B   8,B   9,B   3,B   4)   -144.5992         0.010000   
    196. D(B   8,B   9,B   3,B   2)    -32.2836         0.010000   
    197. D(B   4,B   9,B   3,B   8)    144.5992         0.010000   
    198. D(B   4,B   9,B   3,B   2)    112.3155         0.010000   
    199. D(B  11,B  10,B   9,B   3)    -65.4144         0.010000   
    200. D(B   5,B  10,B   9,B   4)    -34.0926         0.010000   
    201. D(B   5,B  10,B   9,B   3)      0.0000         0.010000   
    202. D(B   4,B  10,B   9,B   8)     99.5070         0.010000   
    203. D(B   4,B  10,B   9,B   3)     34.0926         0.010000   
    204. D(B  11,B  10,B   5,B   0)     32.2836         0.010000   
    205. D(B   9,B  10,B   5,B  11)   -112.3155         0.010000   
    206. D(B   9,B  10,B   5,B   4)     32.2836         0.010000   
    207. D(B   9,B  10,B   5,B   0)    -80.0319         0.010000   
    208. D(B   4,B  10,B   5,B  11)   -144.5992         0.010000   
    209. D(B   4,B  10,B   5,B   0)   -112.3155         0.010000   
    210. D(B  11,B  10,B   4,B   5)    -32.2836         0.010000   
    211. D(B  11,B  10,B   4,B   3)     80.0319         0.010000   
    212. D(B   9,B  10,B   4,B   5)   -144.5992         0.010000   
    213. D(B   9,B  10,B   4,B   3)    -32.2836         0.010000   
    214. D(B   5,B  10,B   9,B   8)     65.4144         0.010000   
    215. D(B   5,B  10,B   4,B   9)    144.5992         0.010000   
    216. D(B   5,B  10,B   4,B   3)    112.3155         0.010000   
    217. D(B  10,B  11,B   0,B   5)     32.2836         0.010000   
    218. D(B  10,B  11,B   0,B   1)    -80.0319         0.010000   
    219. D(B   6,B  11,B   0,B   5)    144.5992         0.010000   
    220. D(B   6,B  11,B   0,B   1)     32.2836         0.010000   
    221. D(B   5,B  11,B   0,B   6)   -144.5992         0.010000   
    222. D(B   0,B  11,B   5,B   4)    112.3155         0.010000   
    223. D(B   5,B  11,B   0,B   1)   -112.3155         0.010000   
    224. D(B   6,B  11,B  10,B   4)    -65.4144         0.010000   
    225. D(B   5,B  11,B  10,B   4)     34.0926         0.010000   
    226. D(B   0,B  11,B  10,B   9)     65.4144         0.010000   
    227. D(B   0,B  11,B  10,B   5)    -34.0926         0.010000   
    228. D(B  10,B  11,B   6,B   0)     99.5070         0.010000   
    229. D(B   5,B  11,B   6,B   7)    -65.4144         0.010000   
    230. D(B   5,B  11,B   6,B   1)      0.0000         0.010000   
    231. D(B   5,B  11,B   6,B   0)     34.0926         0.010000   
    232. D(B   0,B  11,B   6,B   7)    -99.5070         0.010000   
    233. D(B   0,B  11,B   6,B   1)    -34.0926         0.010000   
    234. D(B   0,B  11,B  10,B   4)     -0.0000         0.010000   
    235. D(B  10,B  11,B   5,B   0)   -144.5992         0.010000   
    236. D(B   6,B  11,B   5,B  10)    112.3155         0.010000   
    237. D(B   6,B  11,B   5,B   4)     80.0319         0.010000   
    238. D(B   5,B  11,B  10,B   9)     99.5070         0.010000   
    239. D(B   6,B  11,B   5,B   0)    -32.2836         0.010000   
    240. D(B   0,B  11,B   5,B  10)    144.5992         0.010000   
    -----------------------------------------------------------------

Number of atoms                         .... 12
Number of degrees of freedom            .... 240


         *************************************************************
         *                GEOMETRY OPTIMIZATION CYCLE   1            *
         *************************************************************
---------------------------------
CARTESIAN COORDINATES (ANGSTROEM)
---------------------------------
  B      1.889043   -0.000000    0.755617
  B      0.944521    1.635959    0.755617
  B     -0.944521    1.635959    0.755617
  B     -1.889043    0.000000    0.755617
  B     -0.944521   -1.635959    0.755617
  B      0.944521   -1.635959    0.755617
  B      1.635959    0.944521   -0.755617
  B      0.000000    1.889043   -0.755617
  B     -1.635959    0.944521   -0.755617
  B     -1.635959   -0.944521   -0.755617
  B     -0.000000   -1.889043   -0.755617
  B      1.635959   -0.944521   -0.755617

----------------------------
CARTESIAN COORDINATES (A.U.)
----------------------------
  NO LB      ZA    FRAG     MASS         X           Y           Z
   0 B     5.0000    0    10.810    3.569773   -0.000000    1.427909
   1 B     5.0000    0    10.810    1.784887    3.091514    1.427909
   2 B     5.0000    0    10.810   -1.784887    3.091514    1.427909
   3 B     5.0000    0    10.810   -3.569773    0.000000    1.427909
   4 B     5.0000    0    10.810   -1.784887   -3.091514    1.427909
   5 B     5.0000    0    10.810    1.784887   -3.091514    1.427909
   6 B     5.0000    0    10.810    3.091514    1.784887   -1.427909
   7 B     5.0000    0    10.810    0.000000    3.569773   -1.427909
   8 B     5.0000    0    10.810   -3.091514    1.784887   -1.427909
   9 B     5.0000    0    10.810   -3.091514   -1.784887   -1.427909
  10 B     5.0000    0    10.810   -0.000000   -3.569773   -1.427909
  11 B     5.0000    0    10.810    3.091514   -1.784887   -1.427909

--------------------------------
INTERNAL COORDINATES (ANGSTROEM)
--------------------------------
 B      0   0   0     0.000000000000     0.00000000     0.00000000
 B      1   0   0     1.889042505345     0.00000000     0.00000000
 B      2   1   0     1.889042520000   119.99999991     0.00000000
 B      3   2   1     1.889042505345   119.99999991     0.00000000
 B      4   3   2     1.889042505345   120.00000019     0.00000000
 B      1   2   3     1.889042505345   120.00000019     0.00000000
 B      2   1   3     1.800000001847    58.34966039   260.49299793
 B      2   1   3     1.800000010574   112.58986250   294.58559915
 B      3   2   1     1.800000001847   112.58986224   294.58559878
 B      5   4   3     1.800000001847    58.34966039   260.49299793
 B      5   4   3     1.800000010574   112.58986250   294.58559915
 B      6   1   2     1.800000001847    58.34966039    99.50700207

---------------------------
INTERNAL COORDINATES (A.U.)
---------------------------
 B      0   0   0     0.000000000000     0.00000000     0.00000000
 B      1   0   0     3.569772990438     0.00000000     0.00000000
 B      2   1   0     3.569773018132   119.99999991     0.00000000
 B      3   2   1     3.569772990438   119.99999991     0.00000000
 B      4   3   2     3.569772990438   120.00000019     0.00000000
 B      1   2   3     3.569772990438   120.00000019     0.00000000
 B      2   1   3     3.401507044548    58.34966039   260.49299793
 B      2   1   3     3.401507061039   112.58986250   294.58559915
 B      3   2   1     3.401507044548   112.58986224   294.58559878
 B      5   4   3     3.401507044548    58.34966039   260.49299793
 B      5   4   3     3.401507061039   112.58986250   294.58559915
 B      6   1   2     3.401507044548    58.34966039    99.50700207

---------------------
BASIS SET INFORMATION
---------------------
There are 1 groups of distinct atoms

 Group   1 Type B   : 7s4p1d contracted to 3s2p1d pattern {511/31/1}

Atom   0B    basis set group =>   1
Atom   1B    basis set group =>   1
Atom   2B    basis set group =>   1
Atom   3B    basis set group =>   1
Atom   4B    basis set group =>   1
Atom   5B    basis set group =>   1
Atom   6B    basis set group =>   1
Atom   7B    basis set group =>   1
Atom   8B    basis set group =>   1
Atom   9B    basis set group =>   1
Atom  10B    basis set group =>   1
Atom  11B    basis set group =>   1
---------------------------------
AUXILIARY/J BASIS SET INFORMATION
---------------------------------
There are 1 groups of distinct atoms

 Group   1 Type B   : 12s5p4d2f1g contracted to 6s4p3d1f1g pattern {711111/2111/211/2/1}

Atom   0B    basis set group =>   1
Atom   1B    basis set group =>   1
Atom   2B    basis set group =>   1
Atom   3B    basis set group =>   1
Atom   4B    basis set group =>   1
Atom   5B    basis set group =>   1
Atom   6B    basis set group =>   1
Atom   7B    basis set group =>   1
Atom   8B    basis set group =>   1
Atom   9B    basis set group =>   1
Atom  10B    basis set group =>   1
Atom  11B    basis set group =>   1


           ************************************************************
           *        Program running with 8 parallel MPI-processes     *
           *              working on a common directory               *
           ************************************************************
------------------------------------------------------------------------------
                             ORCA STARTUP CALCULATIONS
                           -- RI-GTO INTEGRALS CHOSEN --
------------------------------------------------------------------------------
------------------------------------------------------------------------------
                   ___                                                        
                  /   \      - P O W E R E D   B Y -                         
                 /     \                                                     
                 |  |  |   _    _      __       _____    __    __             
                 |  |  |  | |  | |    /  \     |  _  \  |  |  /  |          
                  \  \/   | |  | |   /    \    | | | |  |  | /  /          
                 / \  \   | |__| |  /  /\  \   | |_| |  |  |/  /          
                |  |  |   |  __  | /  /__\  \  |    /   |      \           
                |  |  |   | |  | | |   __   |  |    \   |  |\   \          
                \     /   | |  | | |  |  |  |  | |\  \  |  | \   \       
                 \___/    |_|  |_| |__|  |__|  |_| \__\ |__|  \__/        
                                                                              
                      - O R C A' S   B I G   F R I E N D -                    
                                      &                                       
                       - I N T E G R A L  F E E D E R -                       
                                                                              
 v1 FN, 2020, v2 2021, v3 2022-2024                                           
------------------------------------------------------------------------------


----------------------
SHARK INTEGRAL PACKAGE
----------------------

Number of atoms                             ...     12
Number of basis functions                   ...    168
Number of shells                            ...     72
Maximum angular momentum                    ...      2
Integral batch strategy                     ... SHARK/LIBINT Hybrid
RI-J (if used) integral strategy            ... SPLIT-RIJ (Revised 2003 algorithm where possible)
Printlevel                                  ...      1
Contraction scheme used                     ... SEGMENTED contraction
Prescreening option                         ... SCHWARTZ
   Thresh                                   ... 2.500e-11
   Tcut                                     ... 2.500e-12
   Tpresel                                  ... 2.500e-12 
Coulomb Range Separation                    ... NOT USED
Exchange Range Separation                   ... NOT USED
Multipole approximations                    ... NOT USED
Finite Nucleus Model                        ... NOT USED
CABS basis                                  ... NOT available
Auxiliary Coulomb fitting basis             ... AVAILABLE
   # of basis functions in Aux-J            ...    588
   # of shells in Aux-J                     ...    180
   Maximum angular momentum in Aux-J        ...      4
Auxiliary J/K fitting basis                 ... NOT available
Auxiliary Correlation fitting basis         ... NOT available
Auxiliary 'external' fitting basis          ... NOT available

Checking pre-screening integrals            ... done (  0.0 sec) Dimension = 72
   => SHARK Basis and OBASIS are compatible. Storing Pre-screening
Shell pair information
Shell pair cut-off parameter TPreSel        ...   2.5e-12
Total number of shell pairs                 ...      2628
Shell pairs after pre-screening             ...      2586
Total number of primitive shell pairs       ...     10596
Primitive shell pairs kept                  ...      7938
          la=0 lb=0:    624 shell pairs
          la=1 lb=0:    864 shell pairs
          la=1 lb=1:    300 shell pairs
          la=2 lb=0:    432 shell pairs
          la=2 lb=1:    288 shell pairs
          la=2 lb=2:     78 shell pairs

Checking whether 4 symmetric matrices of dimension 168 fit in memory
:Max Core in MB      =   2500.00
 MB in use           =      6.91
 MB left             =   2493.09
 MB needed           =      0.43
 Data fit in memory  = YES
Calculating RI/J V-Matrix + Cholesky decomp.... done (  0.0 sec)
Calculating Nuclear repulsion               ... done (  0.0 sec) ENN=    333.679069712479 Eh

Diagonalization of the overlap matrix:
Smallest eigenvalue                        ... 2.423e-04
Time for diagonalization                   ...    0.003 sec
Threshold for overlap eigenvalues          ... 1.000e-07
Number of eigenvalues below threshold      ... 0
Time for construction of square roots      ...    0.002 sec
Total time needed                          ...    0.006 sec

-------------------
DFT GRID GENERATION
-------------------

General Integration Accuracy     IntAcc      ... 4.388
Radial Grid Type                 RadialGrid  ... OptM3 with GC (2021)
Angular Grid (max. ang.)         AngularGrid ... 4 (Lebedev-302)
Angular grid pruning method      GridPruning ... 4 (adaptive)
Weight generation scheme         WeightScheme... mBecke (2022)
Basis function cutoff            BFCut       ... 1.0000e-11
Integration weight cutoff        WCut        ... 1.0000e-14
Partially contracted basis set               ... off
Rotationally invariant grid construction     ... off
Angular grids for H and He will be reduced by one unit

Total number of grid points                  ...    71124
Total number of batches                      ...     1116
Average number of points per batch           ...       63
Average number of grid points per atom       ...     5927
Grids setup in   0.7 sec
Initializing property integral containers    ... done (  0.0 sec)

SHARK setup successfully completed in   0.8 seconds

Maximum memory used throughout the entire STARTUP-calculation: 19.9 MB


           ************************************************************
           *        Program running with 8 parallel MPI-processes     *
           *              working on a common directory               *
           ************************************************************
-------------------------------------------------------------------------------
                                 ORCA GUESS
                   Start orbitals & Density for SCF / CASSCF
-------------------------------------------------------------------------------

------------
SCF SETTINGS
------------
Hamiltonian:
 Density Functional     Method          .... DFT(GTOs)
 Exchange Functional    Exchange        .... B88
   X-Alpha parameter    XAlpha          ....  0.666667
   Becke's b parameter  XBeta           ....  0.004200
 Correlation Functional Correlation     .... P86
 LDA part of GGA corr.  LDAOpt          .... PW91-LDA
 Gradients option       PostSCFGGA      .... off
   NL short-range parameter             ....  4.400000
 RI-approximation to the Coulomb term is turned on
   Number of AuxJ basis functions       .... 588


General Settings:
 Integral files         IntName         .... hex_antiprism_nn1.80
 Hartree-Fock type      HFTyp           .... RHF
 Total Charge           Charge          ....    0
 Multiplicity           Mult            ....    1
 Number of Electrons    NEL             ....   60
 Basis Dimension        Dim             ....  168
 Nuclear Repulsion      ENuc            ....    333.6790697125 Eh

Convergence Acceleration:
 AO-DIIS                CNVDIIS         .... on
   Start iteration      DIISMaxIt       ....     0
   Startup error        DIISStart       ....  0.200000
   # of expansion vecs  DIISMaxEq       ....     5
   Bias factor          DIISBfac        ....   1.050
   Max. coefficient     DIISMaxC        ....  10.000
 MO-DIIS                CNVKDIIS        .... off
 Trust-Rad. Augm. Hess. CNVTRAH         .... auto
   Auto Start mean grad. ratio tolernc. ....  1.125000
   Auto Start start iteration           ....    50
   Auto Start num. interpolation iter.  ....    10
   Max. Number of Micro iterations      ....    24
   Max. Number of Macro iterations      .... Maxiter - #DIIS iter
   Number of Davidson start vectors     ....     2
   Converg. threshold    (grad. norm)   ....   1.000e-05
   Grad. Scal. Fac. for Micro threshold ....   0.100
   Minimum threshold for Micro iter.    ....   1.000e-02
   NR start threshold (gradient norm)   ....   1.000e-04
   Initial trust radius                 ....   0.400
   Minimum AH scaling param. (alpha)    ....   1.000
   Maximum AH scaling param. (alpha)    .... 1000.000
   Quad. conv. algorithm                .... NR
   White noise on init. David. guess    .... on
   Maximum white noise                  ....   0.010
   Pseudo random numbers                .... off
   Inactive MOs                         .... canonical
   Orbital update algorithm             .... Taylor
   Preconditioner                       .... Diag
   Full preconditioner red. dimension   ....   250
 SOSCF                 CNVSOSCF           .... on
   Start iteration     SOSCFMaxIt         ....   150
   Startup grad/error  SOSCFStart         ....  0.001000
   Hessian update      SOSCFHessUp        .... L-BFGS
   Autom. constraints  SOSCFAutoConstrain .... off
 Level Shifting         CNVShift        .... on
   Level shift para.    LevelShift      ....    0.2500
   Turn off err/grad.   ShiftErr        ....    0.0000
 Zerner damping         CNVZerner       .... off
 Static damping         CNVDamp         .... on
   Fraction old density DampFac         ....    0.8500
   Max. Damping (<1)    DampMax         ....    0.9800
   Min. Damping (>=0)   DampMin         ....    0.0000
   Turn off err/grad.   DampErr         ....    0.0300

SCF Procedure:
 Maximum # iterations   MaxIter         ....   125
 SCF integral mode      SCFMode         .... Direct
   Integral package                     .... SHARK and LIBINT hybrid scheme
 Reset frequency        DirectResetFreq ....    20
 Integral Threshold     Thresh          ....  2.500e-11 Eh
 Primitive CutOff       TCut            ....  2.500e-12 Eh

Convergence Tolerance:
 Convergence Check Mode ConvCheckMode   .... Total+1el-Energy
 Convergence forced     ConvForced      .... 0
 Energy Change          TolE            ....  1.000e-08 Eh
 1-El. energy change                    ....  1.000e-05 Eh
 Orbital Gradient       TolG            ....  1.000e-05
 Orbital Rotation angle TolX            ....  1.000e-05
 DIIS Error             TolErr          ....  5.000e-07

------------------------------
INITIAL GUESS: MODEL POTENTIAL
------------------------------
Loading Hartree-Fock densities                     ... done
Calculating cut-offs                               ... done
Initializing the effective Hamiltonian             ... done
Setting up the integral package (SHARK)            ... done
Starting the Coulomb interaction                   ... done (   0.0 sec)
Making the grid                                    ... done (   0.2 sec)
Mapping shells                                     ... done
Starting the XC term evaluation                    ... done (   0.0 sec)
  promolecular density results
     # of electrons  =     60.002942591
     EX              =    -45.518101067
     EC              =     -1.973796581
     EX+EC           =    -47.491897648
Transforming the Hamiltonian                       ... done (   0.0 sec)
Diagonalizing the Hamiltonian                      ... done (   0.0 sec)
Back transforming the eigenvectors                 ... done (   0.0 sec)
Now organizing SCF variables                       ... done
                      ------------------
                      INITIAL GUESS DONE (   0.3 sec)
                      ------------------
             **** ENERGY FILE WAS UPDATED (hex_antiprism_nn1.80.en.tmp) ****
Finished Guess after   0.8 sec
Maximum memory used throughout the entire GUESS-calculation: 9.7 MB


           ************************************************************
           *        Program running with 8 parallel MPI-processes     *
           *              working on a common directory               *
           ************************************************************

-------------------------------------------------------------------------------------------
                                      ORCA LEAN-SCF
                              memory conserving SCF solver
-------------------------------------------------------------------------------------------

----------------------------------------D-I-I-S--------------------------------------------
Iteration    Energy (Eh)           Delta-E    RMSDP     MaxDP     DIISErr   Damp  Time(sec)
-------------------------------------------------------------------------------------------
               ***  Starting incremental Fock matrix formation  ***
    1    -297.1740710129232070     0.00e+00  5.94e-03  1.61e-02  9.30e-02  0.850   0.3
Warning: op=0 Small HOMO/LUMO gap (   0.005) - skipping pre-diagonalization
         Will do a full diagonalization
    2    -297.2560744510323616    -8.20e-02  6.82e-03  1.52e-02  6.70e-02  0.850   0.3
                               ***Turning on AO-DIIS***
    3    -297.3089615389939695    -5.29e-02  3.35e-03  6.28e-03  3.97e-02  0.850   0.3
    4    -297.3391296363384413    -3.02e-02  1.79e-03  3.71e-03  2.77e-02  0.850   0.4
    5    -297.3592807930695585    -2.02e-02  7.96e-03  2.33e-02  2.10e-02  0.000   0.4
    6    -297.4446510674702608    -8.54e-02  1.61e-03  3.87e-03  7.74e-03  0.000   0.4
    7    -297.4468924563539645    -2.24e-03  6.77e-04  1.74e-03  2.65e-03  0.000   0.4
                              *** Initializing SOSCF ***
---------------------------------------S-O-S-C-F--------------------------------------
Iteration    Energy (Eh)           Delta-E    RMSDP     MaxDP     MaxGrad    Time(sec)
--------------------------------------------------------------------------------------
    8    -297.4472532980906294    -3.61e-04  3.89e-04  1.16e-03  9.06e-04     0.3
               *** Restarting incremental Fock matrix formation ***
    9    -297.4473227234297497    -6.94e-05  4.62e-04  1.27e-03  9.61e-04     0.3
   10    -297.4473412859662744    -1.86e-05  3.34e-04  1.04e-03  6.55e-04     0.3
   11    -297.4473536801663727    -1.24e-05  1.25e-04  4.67e-04  1.24e-04     0.3
   12    -297.4473542528685925    -5.73e-07  2.82e-05  9.22e-05  2.66e-05     0.3
   13    -297.4473542916771862    -3.88e-08  5.50e-06  2.30e-05  1.01e-05     0.3
   14    -297.4473542940968969    -2.42e-09  6.34e-07  2.15e-06  5.00e-07     0.3
                 **** Energy Check signals convergence ****

               *****************************************************
               *                     SUCCESS                       *
               *           SCF CONVERGED AFTER  14 CYCLES          *
               *****************************************************

             **** ENERGY FILE WAS UPDATED (hex_antiprism_nn1.80.en.tmp) ****

----------------
TOTAL SCF ENERGY
----------------

Total Energy       :       -297.44735429029896 Eh           -8093.95400 eV

Components:
Nuclear Repulsion  :        333.67906971247902 Eh            9079.86910 eV
Electronic Energy  :       -631.12642400277798 Eh          -17173.82310 eV
One Electron Energy:      -1056.04765933929002 Eh          -28736.51775 eV
Two Electron Energy:        424.92123533651204 Eh           11562.69465 eV

Virial components:
Potential Energy   :       -587.87903614346453 Eh          -15997.00185 eV
Kinetic Energy     :        290.43168185316557 Eh            7903.04785 eV
Virial Ratio       :          2.02415601628709

DFT components:
N(Alpha)           :       29.999823516637 electrons
N(Beta)            :       29.999823516637 electrons
N(Total)           :       59.999647033274 electrons
E(X)               :      -45.758992419185 Eh       
E(C)               :       -2.005249263908 Eh       
E(XC)              :      -47.764241683093 Eh       

---------------
SCF CONVERGENCE
---------------

  Last Energy change         ...    2.4197e-09  Tolerance :   1.0000e-08
  Last MAX-Density change    ...    2.1538e-06  Tolerance :   1.0000e-07
  Last RMS-Density change    ...    6.3428e-07  Tolerance :   5.0000e-09
  Last DIIS Error            ...    9.0573e-04  Tolerance :   5.0000e-07
  Last Orbital Gradient      ...    4.9958e-07  Tolerance :   1.0000e-05
  Last Orbital Rotation      ...    1.8548e-06  Tolerance :   1.0000e-05


----------------
ORBITAL ENERGIES
----------------

  NO   OCC          E(Eh)            E(eV) 
   0   2.0000      -6.607969      -179.8120 
   1   2.0000      -6.607968      -179.8120 
   2   2.0000      -6.607962      -179.8118 
   3   2.0000      -6.607962      -179.8118 
   4   2.0000      -6.607862      -179.8091 
   5   2.0000      -6.607862      -179.8091 
   6   2.0000      -6.607832      -179.8083 
   7   2.0000      -6.607769      -179.8065 
   8   2.0000      -6.607769      -179.8065 
   9   2.0000      -6.607767      -179.8065 
  10   2.0000      -6.607766      -179.8065 
  11   2.0000      -6.607649      -179.8033 
  12   2.0000      -0.642900       -17.4942 
  13   2.0000      -0.588218       -16.0062 
  14   2.0000      -0.588218       -16.0062 
  15   2.0000      -0.485012       -13.1978 
  16   2.0000      -0.485012       -13.1978 
  17   2.0000      -0.393725       -10.7138 
  18   2.0000      -0.365001        -9.9322 
  19   2.0000      -0.365001        -9.9322 
  20   2.0000      -0.341911        -9.3039 
  21   2.0000      -0.341911        -9.3039 
  22   2.0000      -0.312848        -8.5130 
  23   2.0000      -0.283365        -7.7107 
  24   2.0000      -0.283364        -7.7107 
  25   2.0000      -0.253243        -6.8911 
  26   2.0000      -0.243881        -6.6363 
  27   2.0000      -0.243881        -6.6363 
  28   2.0000      -0.196221        -5.3394 
  29   2.0000      -0.196221        -5.3394 
  30   0.0000      -0.157744        -4.2924 
  31   0.0000      -0.157744        -4.2924 
  32   0.0000      -0.146405        -3.9839 
  33   0.0000      -0.146404        -3.9839 
  34   0.0000      -0.132059        -3.5935 
  35   0.0000      -0.132059        -3.5935 
  36   0.0000      -0.130783        -3.5588 
  37   0.0000      -0.090247        -2.4557 
  38   0.0000      -0.090247        -2.4557 
  39   0.0000      -0.060230        -1.6389 
  40   0.0000      -0.060230        -1.6389 
*Only the first 10 virtual orbitals were printed.

                    ********************************
                    * MULLIKEN POPULATION ANALYSIS *
                    ********************************

-----------------------
MULLIKEN ATOMIC CHARGES
-----------------------
   0 B :   -0.000070
   1 B :    0.000035
   2 B :    0.000036
   3 B :   -0.000071
   4 B :    0.000035
   5 B :    0.000035
   6 B :    0.000035
   7 B :   -0.000071
   8 B :    0.000035
   9 B :    0.000036
  10 B :   -0.000069
  11 B :    0.000035
Sum of atomic charges:   -0.0000000

--------------------------------
MULLIKEN REDUCED ORBITAL CHARGES
--------------------------------
  0 B s       :     2.978725  s :     2.978725
      pz      :     0.722163  p :     1.981245
      px      :     0.542661
      py      :     0.716422
      dz2     :     0.012423  d :     0.040100
      dxz     :     0.006969
      dyz     :     0.008744
      dx2y2   :     0.006137
      dxy     :     0.005827

  1 B s       :     2.978689  s :     2.978689
      pz      :     0.722150  p :     1.981176
      px      :     0.672964
      py      :     0.586063
      dz2     :     0.012423  d :     0.040100
      dxz     :     0.008300
      dyz     :     0.007413
      dx2y2   :     0.005905
      dxy     :     0.006059

  2 B s       :     2.978687  s :     2.978687
      pz      :     0.722150  p :     1.981176
      px      :     0.672963
      py      :     0.586063
      dz2     :     0.012423  d :     0.040100
      dxz     :     0.008300
      dyz     :     0.007413
      dx2y2   :     0.005905
      dxy     :     0.006059

  3 B s       :     2.978725  s :     2.978725
      pz      :     0.722163  p :     1.981246
      px      :     0.542661
      py      :     0.716422
      dz2     :     0.012423  d :     0.040100
      dxz     :     0.006969
      dyz     :     0.008744
      dx2y2   :     0.006137
      dxy     :     0.005827

  4 B s       :     2.978689  s :     2.978689
      pz      :     0.722150  p :     1.981176
      px      :     0.672963
      py      :     0.586063
      dz2     :     0.012423  d :     0.040100
      dxz     :     0.008300
      dyz     :     0.007413
      dx2y2   :     0.005905
      dxy     :     0.006059

  5 B s       :     2.978689  s :     2.978689
      pz      :     0.722150  p :     1.981177
      px      :     0.672964
      py      :     0.586063
      dz2     :     0.012423  d :     0.040100
      dxz     :     0.008300
      dyz     :     0.007413
      dx2y2   :     0.005905
      dxy     :     0.006059

  6 B s       :     2.978688  s :     2.978688
      pz      :     0.722150  p :     1.981177
      px      :     0.586063
      py      :     0.672964
      dz2     :     0.012423  d :     0.040100
      dxz     :     0.007413
      dyz     :     0.008300
      dx2y2   :     0.005905
      dxy     :     0.006059

  7 B s       :     2.978725  s :     2.978725
      pz      :     0.722163  p :     1.981245
      px      :     0.716422
      py      :     0.542661
      dz2     :     0.012423  d :     0.040100
      dxz     :     0.008744
      dyz     :     0.006969
      dx2y2   :     0.006137
      dxy     :     0.005827

  8 B s       :     2.978689  s :     2.978689
      pz      :     0.722150  p :     1.981177
      px      :     0.586063
      py      :     0.672964
      dz2     :     0.012423  d :     0.040100
      dxz     :     0.007413
      dyz     :     0.008300
      dx2y2   :     0.005905
      dxy     :     0.006059

  9 B s       :     2.978688  s :     2.978688
      pz      :     0.722150  p :     1.981176
      px      :     0.586063
      py      :     0.672963
      dz2     :     0.012423  d :     0.040100
      dxz     :     0.007413
      dyz     :     0.008300
      dx2y2   :     0.005905
      dxy     :     0.006059

 10 B s       :     2.978724  s :     2.978724
      pz      :     0.722163  p :     1.981245
      px      :     0.716422
      py      :     0.542661
      dz2     :     0.012423  d :     0.040100
      dxz     :     0.008744
      dyz     :     0.006969
      dx2y2   :     0.006137
      dxy     :     0.005827

 11 B s       :     2.978689  s :     2.978689
      pz      :     0.722150  p :     1.981177
      px      :     0.586063
      py      :     0.672964
      dz2     :     0.012423  d :     0.040100
      dxz     :     0.007413
      dyz     :     0.008300
      dx2y2   :     0.005905
      dxy     :     0.006059



                     *******************************
                     * LOEWDIN POPULATION ANALYSIS *
                     *******************************

----------------------
LOEWDIN ATOMIC CHARGES
----------------------
   0 B :   -0.000004
   1 B :    0.000002
   2 B :    0.000002
   3 B :   -0.000004
   4 B :    0.000002
   5 B :    0.000002
   6 B :    0.000002
   7 B :   -0.000004
   8 B :    0.000002
   9 B :    0.000002
  10 B :   -0.000004
  11 B :    0.000002

-------------------------------
LOEWDIN REDUCED ORBITAL CHARGES
-------------------------------
  0 B s       :     2.760929  s :     2.760929
      pz      :     0.835059  p :     2.142135
      px      :     0.527479
      py      :     0.779598
      dz2     :     0.031130  d :     0.096939
      dxz     :     0.010937
      dyz     :     0.023271
      dx2y2   :     0.013248
      dxy     :     0.018354

  1 B s       :     2.760931  s :     2.760931
      pz      :     0.835063  p :     2.142127
      px      :     0.716566
      py      :     0.590498
      dz2     :     0.031129  d :     0.096940
      dxz     :     0.020188
      dyz     :     0.014021
      dx2y2   :     0.017078
      dxy     :     0.014524

  2 B s       :     2.760931  s :     2.760931
      pz      :     0.835063  p :     2.142127
      px      :     0.716566
      py      :     0.590498
      dz2     :     0.031129  d :     0.096940
      dxz     :     0.020188
      dyz     :     0.014021
      dx2y2   :     0.017078
      dxy     :     0.014524

  3 B s       :     2.760929  s :     2.760929
      pz      :     0.835059  p :     2.142135
      px      :     0.527479
      py      :     0.779598
      dz2     :     0.031130  d :     0.096939
      dxz     :     0.010937
      dyz     :     0.023271
      dx2y2   :     0.013248
      dxy     :     0.018354

  4 B s       :     2.760931  s :     2.760931
      pz      :     0.835063  p :     2.142127
      px      :     0.716566
      py      :     0.590498
      dz2     :     0.031129  d :     0.096940
      dxz     :     0.020188
      dyz     :     0.014021
      dx2y2   :     0.017078
      dxy     :     0.014524

  5 B s       :     2.760931  s :     2.760931
      pz      :     0.835063  p :     2.142127
      px      :     0.716566
      py      :     0.590498
      dz2     :     0.031129  d :     0.096940
      dxz     :     0.020188
      dyz     :     0.014021
      dx2y2   :     0.017078
      dxy     :     0.014524

  6 B s       :     2.760931  s :     2.760931
      pz      :     0.835063  p :     2.142127
      px      :     0.590498
      py      :     0.716566
      dz2     :     0.031129  d :     0.096940
      dxz     :     0.014021
      dyz     :     0.020188
      dx2y2   :     0.017078
      dxy     :     0.014524

  7 B s       :     2.760929  s :     2.760929
      pz      :     0.835059  p :     2.142135
      px      :     0.779598
      py      :     0.527479
      dz2     :     0.031130  d :     0.096939
      dxz     :     0.023271
      dyz     :     0.010937
      dx2y2   :     0.013248
      dxy     :     0.018354

  8 B s       :     2.760931  s :     2.760931
      pz      :     0.835063  p :     2.142127
      px      :     0.590498
      py      :     0.716566
      dz2     :     0.031129  d :     0.096940
      dxz     :     0.014021
      dyz     :     0.020188
      dx2y2   :     0.017078
      dxy     :     0.014524

  9 B s       :     2.760931  s :     2.760931
      pz      :     0.835063  p :     2.142127
      px      :     0.590498
      py      :     0.716566
      dz2     :     0.031129  d :     0.096940
      dxz     :     0.014021
      dyz     :     0.020188
      dx2y2   :     0.017078
      dxy     :     0.014524

 10 B s       :     2.760929  s :     2.760929
      pz      :     0.835059  p :     2.142135
      px      :     0.779598
      py      :     0.527479
      dz2     :     0.031130  d :     0.096939
      dxz     :     0.023271
      dyz     :     0.010937
      dx2y2   :     0.013248
      dxy     :     0.018354

 11 B s       :     2.760931  s :     2.760931
      pz      :     0.835063  p :     2.142127
      px      :     0.590498
      py      :     0.716566
      dz2     :     0.031129  d :     0.096940
      dxz     :     0.014021
      dyz     :     0.020188
      dx2y2   :     0.017078
      dxy     :     0.014524



                      *****************************
                      * MAYER POPULATION ANALYSIS *
                      *****************************

  NA   - Mulliken gross atomic population
  ZA   - Total nuclear charge
  QA   - Mulliken gross atomic charge
  VA   - Mayer's total valence
  BVA  - Mayer's bonded valence
  FA   - Mayer's free valence

  ATOM       NA         ZA         QA         VA         BVA        FA
  0 B      5.0001     5.0000    -0.0001     3.7602     3.7602     0.0000
  1 B      5.0000     5.0000     0.0000     3.7601     3.7601    -0.0000
  2 B      5.0000     5.0000     0.0000     3.7601     3.7601    -0.0000
  3 B      5.0001     5.0000    -0.0001     3.7602     3.7602    -0.0000
  4 B      5.0000     5.0000     0.0000     3.7601     3.7601    -0.0000
  5 B      5.0000     5.0000     0.0000     3.7601     3.7601    -0.0000
  6 B      5.0000     5.0000     0.0000     3.7601     3.7601    -0.0000
  7 B      5.0001     5.0000    -0.0001     3.7602     3.7602    -0.0000
  8 B      5.0000     5.0000     0.0000     3.7601     3.7601    -0.0000
  9 B      5.0000     5.0000     0.0000     3.7601     3.7601    -0.0000
 10 B      5.0001     5.0000    -0.0001     3.7602     3.7602    -0.0000
 11 B      5.0000     5.0000     0.0000     3.7601     3.7601    -0.0000

  Mayer bond orders larger than 0.100000
B(  0-B ,  1-B ) :   0.9623 B(  0-B ,  5-B ) :   0.9623 B(  0-B ,  6-B ) :   0.7075 
B(  0-B , 11-B ) :   0.7075 B(  1-B ,  2-B ) :   0.9622 B(  1-B ,  6-B ) :   0.7075 
B(  1-B ,  7-B ) :   0.7075 B(  2-B ,  3-B ) :   0.9623 B(  2-B ,  7-B ) :   0.7075 
B(  2-B ,  8-B ) :   0.7075 B(  3-B ,  4-B ) :   0.9623 B(  3-B ,  8-B ) :   0.7075 
B(  3-B ,  9-B ) :   0.7075 B(  4-B ,  5-B ) :   0.9622 B(  4-B ,  9-B ) :   0.7075 
B(  4-B , 10-B ) :   0.7075 B(  5-B , 10-B ) :   0.7075 B(  5-B , 11-B ) :   0.7075 
B(  6-B ,  7-B ) :   0.9623 B(  6-B , 11-B ) :   0.9622 B(  7-B ,  8-B ) :   0.9623 
B(  8-B ,  9-B ) :   0.9622 B(  9-B , 10-B ) :   0.9623 B( 10-B , 11-B ) :   0.9623 


-------
TIMINGS
-------

Total SCF time: 0 days 0 hours 0 min 5 sec 

Total time                  ....       5.425 sec
Sum of individual times     ....       5.097 sec  ( 93.9%)

SCF preparation             ....       0.448 sec  (  8.3%)
Fock matrix formation       ....       4.022 sec  ( 74.1%)
  Startup                   ....       0.010 sec  (  0.2% of F)
  Split-RI-J                ....       1.315 sec  ( 32.7% of F)
  XC integration            ....       2.740 sec  ( 68.1% of F)
    XC Preparation          ....       0.000 sec  (  0.0% of XC)
    Basis function eval.    ....       0.672 sec  ( 24.5% of XC)
    Density eval.           ....       0.479 sec  ( 17.5% of XC)
    XC-Functional eval.     ....       0.080 sec  (  2.9% of XC)
    XC-Potential eval.      ....       0.638 sec  ( 23.3% of XC)
Diagonalization             ....       0.000 sec  (  0.0%)
Density matrix formation    ....       0.098 sec  (  1.8%)
Total Energy calculation    ....       0.040 sec  (  0.7%)
Population analysis         ....       0.043 sec  (  0.8%)
Orbital Transformation      ....       0.035 sec  (  0.6%)
Orbital Orthonormalization  ....       0.000 sec  (  0.0%)
DIIS solution               ....       0.259 sec  (  4.8%)
SOSCF solution              ....       0.151 sec  (  2.8%)
Finished LeanSCF after   5.4 sec

Maximum memory used throughout the entire LEANSCF-calculation: 10.2 MB


-------------------------------------------------------------------------------
                          DFT DISPERSION CORRECTION                            
                                                                               
                              DFTD3 V3.1  Rev 1                                
                          USING Becke-Johnson damping                          
-------------------------------------------------------------------------------
The BP86 functional is recognized
Active option DFTDOPT                   ...         4   

molecular C6(AA) [au] = 4522.188806 


            DFT-D V3
 parameters
 s6 scaling factor         :     1.0000 
 a1 scaling factor         :     0.3946 
 s8 scaling factor         :     3.2822 
 a2 scaling factor         :     4.8516 
 ad hoc parameters k1-k3   :    16.0000     1.3333    -4.0000 

 Edisp/kcal,au: -22.568554570415  -0.035965277172 
 E6   /kcal   :  -6.436785110 
 E8   /kcal   : -16.131769460 
 % E8         :  71.478966054 

-------------------------   ----------------
Dispersion correction           -0.035965277
-------------------------   ----------------


-------------------------   --------------------
FINAL SINGLE POINT ENERGY      -297.483319567471
-------------------------   --------------------



           ************************************************************
           *        Program running with 8 parallel MPI-processes     *
           *              working on a common directory               *
           ************************************************************
------------------------------------------------------------------------------
                         ORCA SCF GRADIENT CALCULATION
------------------------------------------------------------------------------

Nuc. rep. gradient        (SHARK) ... done (  0.0 sec)
HCore & Overlap gradient  (SHARK) ... done (  0.0 sec)
Split-RIJ-J gradient      (SHARK) ... done (  0.4 sec)
XC gradient                       ... done (  1.0 sec)
Dispersion correction             ... done (  0.0 sec)

-------------------
DISPERSION GRADIENT
-------------------

   1   B   :    0.000742940   -0.000000000    0.000144714
   2   B   :    0.000371470    0.000643405    0.000144714
   3   B   :   -0.000371470    0.000643405    0.000144714
   4   B   :   -0.000742940   -0.000000000    0.000144714
   5   B   :   -0.000371470   -0.000643405    0.000144714
   6   B   :    0.000371470   -0.000643405    0.000144714
   7   B   :    0.000643405    0.000371470   -0.000144714
   8   B   :    0.000000000    0.000742940   -0.000144714
   9   B   :   -0.000643405    0.000371470   -0.000144714
  10   B   :   -0.000643405   -0.000371470   -0.000144714
  11   B   :    0.000000000   -0.000742940   -0.000144714
  12   B   :    0.000643405   -0.000371470   -0.000144714

Difference to translation invariance:
           :   -0.0000000000    0.0000000000    0.0000000000

Difference to rotation invariance:
           :   -0.0000000000   -0.0000000000   -0.0000000000

Norm of the Dispersion gradient    ...    0.0026219880
RMS gradient                       ...    0.0004369980
MAX gradient                       ...    0.0007429399

------------------
CARTESIAN GRADIENT
------------------

   1   B   :    0.062410184   -0.000000001    0.020569143
   2   B   :    0.031236592    0.054200677    0.020636102
   3   B   :   -0.031236592    0.054200677    0.020636100
   4   B   :   -0.062410194   -0.000000001    0.020569149
   5   B   :   -0.031236591   -0.054200673    0.020636098
   6   B   :    0.031236599   -0.054200681    0.020636106
   7   B   :    0.054200681    0.031236594   -0.020636103
   8   B   :    0.000000000    0.062410190   -0.020569144
   9   B   :   -0.054200682    0.031236598   -0.020636104
  10   B   :   -0.054200677   -0.031236594   -0.020636101
  11   B   :   -0.000000000   -0.062410190   -0.020569145
  12   B   :    0.054200679   -0.031236596   -0.020636100

Difference to translation invariance:
           :   -0.0000000000   -0.0000000000   -0.0000000000

Difference to rotation invariance:
           :   -0.0000000035   -0.0000000061   -0.0000000036

Norm of the Cartesian gradient     ...    0.2280061019
RMS gradient                       ...    0.0380010170
MAX gradient                       ...    0.0624101944

-------
TIMINGS
-------

Total SCF gradient time     ....        1.432 sec

Densities                   ....       0.001 sec  (  0.1%)
One electron gradient       ....       0.048 sec  (  3.4%)
RI-J Coulomb gradient       ....       0.381 sec  ( 26.6%)
XC gradient                 ....       0.954 sec  ( 66.6%)

Maximum memory used throughout the entire SCFGRAD-calculation: 29.7 MB
------------------------------------------------------------------------------
                         ORCA GEOMETRY RELAXATION STEP
------------------------------------------------------------------------------

Reading the OPT-File                    .... done
Getting information on internals        .... done
Copying old internal coords+grads       .... done
Making the new internal coordinates     .... (2022 redundants) done
Validating the new internal coordinates .... (2022 redundants) done
Calculating the B-matrix                .... done
Calculating the G,G- and P matrices     .... done
Transforming gradient to internals      .... done
Projecting the internal gradient        .... done
Number of atoms                         ....  12
Number of internal coordinates          .... 240
Current Energy                          ....  -297.483319567 Eh
Current gradient norm                   ....     0.228006102 Eh/bohr
Maximum allowed component of the step   ....  0.300
Current trust radius                    ....  0.300
Evaluating the initial hessian          ....  (Almloef) done
Projecting the Hessian                  .... done
Forming the augmented Hessian           .... done
Diagonalizing the augmented Hessian     .... done
Last element of RFO vector              ....  0.820254555
Lowest eigenvalues of augmented Hessian:
 -0.136614776  0.030713117  0.031672884  0.037281722  0.041381650
Length of the computed step             ....  0.697342862
Warning: the length of the step is outside the trust region - taking restricted step instead
The input lambda is                     ....     0.029713
   iter:   5  x=   -0.416200  g=    0.897605 f(x)=     0.107712
   iter:  10  x=   -0.508649  g=    0.275586 f(x)=     0.000000
The output lambda is                    ....    -0.508649 (11 iterations)
The final length of the internal step   ....  0.300000000
Converting the step to Cartesian space:
 Initial RMS(Int)=    0.0193649167
Transforming coordinates:
 Iter   0:  RMS(Cart)=    0.0441207730 RMS(Int)=    0.0193699300
done
Storing new coordinates                 .... done

                                .--------------------.
          ----------------------|Geometry convergence|-------------------------
          Item                value                   Tolerance       Converged
          ---------------------------------------------------------------------
          RMS gradient        0.0126521409            0.0001000000      NO
          MAX gradient        0.0499254854            0.0003000000      NO
          RMS step            0.0193649167            0.0020000000      NO
          MAX step            0.0765208354            0.0040000000      NO
          -------------------------------------------------------------------------
          ........................................................
          Max(Bonds)      0.0405      Max(Angles)    0.83
          Max(Dihed)        0.53      Max(Improp)    0.00
          ---------------------------------------------------------------------

The optimization has not yet converged - more geometry cycles are needed


    ---------------------------------------------------------------------------
                         Redundant Internal Coordinates
                            (Angstroem and degrees)

        Definition                    Value    dE/dq     Step     New-Value
    ----------------------------------------------------------------------------
     1. B(B   1,B   0)                1.8890  0.049619 -0.0403    1.8488   
     2. B(B   2,B   1)                1.8890  0.049365 -0.0401    1.8489   
     3. B(B   3,B   2)                1.8890  0.049442 -0.0402    1.8489   
     4. B(B   4,B   3)                1.8890  0.049489 -0.0402    1.8488   
     5. B(B   5,B   4)                1.8890  0.049431 -0.0402    1.8489   
     6. B(B   5,B   0)                1.8890  0.049539 -0.0402    1.8488   
     7. B(B   6,B   0)                1.8000  0.022054 -0.0174    1.7826   
     8. B(B   6,B   1)                1.8000  0.022179 -0.0174    1.7826   
     9. B(B   7,B   6)                1.8890  0.049925 -0.0405    1.8485   
    10. B(B   7,B   2)                1.8000  0.021743 -0.0171    1.7829   
    11. B(B   7,B   1)                1.8000  0.022089 -0.0174    1.7826   
    12. B(B   8,B   7)                1.8890  0.049573 -0.0403    1.8488   
    13. B(B   8,B   3)                1.8000  0.021847 -0.0172    1.7828   
    14. B(B   8,B   2)                1.8000  0.022505 -0.0177    1.7823   
    15. B(B   9,B   3)                1.8000  0.022577 -0.0177    1.7823   
    16. B(B   9,B   8)                1.8890  0.049622 -0.0403    1.8488   
    17. B(B   9,B   4)                1.8000  0.021832 -0.0172    1.7828   
    18. B(B  10,B   9)                1.8890  0.049737 -0.0404    1.8487   
    19. B(B  10,B   5)                1.8000  0.021727 -0.0171    1.7829   
    20. B(B  10,B   4)                1.8000  0.022649 -0.0178    1.7822   
    21. B(B  11,B  10)                1.8890  0.049791 -0.0404    1.8486   
    22. B(B  11,B   6)                1.8890  0.049616 -0.0403    1.8487   
    23. B(B  11,B   5)                1.8000  0.023059 -0.0181    1.7819   
    24. B(B  11,B   0)                1.8000  0.022198 -0.0174    1.7826   
    25. A(B   1,B   0,B   5)          120.00  0.000007   -0.00    120.00   
    26. A(B   6,B   0,B  11)           63.30  0.009116   -0.82     62.48   
    27. A(B   5,B   0,B  11)           58.35 -0.004248    0.39     58.74   
    28. A(B   1,B   0,B   6)           58.35 -0.004531    0.41     58.76   
    29. A(B   1,B   0,B  11)          112.59  0.003162   -0.28    112.31   
    30. A(B   5,B   0,B   6)          112.59  0.003305   -0.30    112.29   
    31. A(B   0,B   1,B   6)           58.35 -0.004590    0.41     58.76   
    32. A(B   0,B   1,B   2)          120.00  0.000022   -0.00    120.00   
    33. A(B   2,B   1,B   7)           58.35 -0.004635    0.42     58.77   
[...]
      pz      :     0.756207  p :     2.219000
      px      :     0.662570
      py      :     0.800223
      dz2     :     0.014573  d :     0.056211
      dxz     :     0.010545
      dyz     :     0.011612
      dx2y2   :     0.010429
      dxy     :     0.009052

  9 B s       :     2.724477  s :     2.724477
      pz      :     0.756169  p :     2.219421
      px      :     0.663051
      py      :     0.800202
      dz2     :     0.014572  d :     0.056204
      dxz     :     0.010544
      dyz     :     0.011615
      dx2y2   :     0.010422
      dxy     :     0.009052

 10 B s       :     2.725535  s :     2.725535
      pz      :     0.755809  p :     2.218249
      px      :     0.869035
      py      :     0.593406
      dz2     :     0.014566  d :     0.056188
      dxz     :     0.012141
      dyz     :     0.009992
      dx2y2   :     0.008381
      dxy     :     0.011107

 11 B s       :     2.721911  s :     2.721911
      pz      :     0.756135  p :     2.220528
      px      :     0.663685
      py      :     0.800709
      dz2     :     0.014584  d :     0.056232
      dxz     :     0.010552
      dyz     :     0.011611
      dx2y2   :     0.010430
      dxy     :     0.009055



                     *******************************
                     * LOEWDIN POPULATION ANALYSIS *
                     *******************************

----------------------
LOEWDIN ATOMIC CHARGES
----------------------
   0 B :   -0.000283
   1 B :    0.000197
   2 B :    0.000160
   3 B :   -0.000422
   4 B :    0.000192
   5 B :    0.000212
   6 B :    0.000395
   7 B :   -0.000382
   8 B :    0.000242
   9 B :    0.000131
  10 B :   -0.000185
  11 B :   -0.000259

-------------------------------
LOEWDIN REDUCED ORBITAL CHARGES
-------------------------------
  0 B s       :     2.675035  s :     2.675035
      pz      :     0.791546  p :     2.182282
      px      :     0.523460
      py      :     0.867276
      dz2     :     0.040578  d :     0.142966
      dxz     :     0.016635
      dyz     :     0.034145
      dx2y2   :     0.021122
      dxy     :     0.030486

  1 B s       :     2.675158  s :     2.675158
      pz      :     0.791357  p :     2.181653
      px      :     0.781324
      py      :     0.608973
      dz2     :     0.040577  d :     0.142992
      dxz     :     0.029788
      dyz     :     0.021028
      dx2y2   :     0.028132
      dxy     :     0.023466

  2 B s       :     2.675102  s :     2.675102
      pz      :     0.791395  p :     2.181722
      px      :     0.781315
      py      :     0.609013
      dz2     :     0.040589  d :     0.143015
      dxz     :     0.029780
      dyz     :     0.021042
      dx2y2   :     0.028146
      dxy     :     0.023458

  3 B s       :     2.674926  s :     2.674926
      pz      :     0.791436  p :     2.182493
      px      :     0.523619
      py      :     0.867438
      dz2     :     0.040588  d :     0.143003
      dxz     :     0.016636
      dyz     :     0.034159
      dx2y2   :     0.021133
      dxy     :     0.030487

  4 B s       :     2.675119  s :     2.675119
      pz      :     0.791424  p :     2.181687
      px      :     0.781112
      py      :     0.609151
      dz2     :     0.040584  d :     0.143002
      dxz     :     0.029789
      dyz     :     0.021029
      dx2y2   :     0.028135
      dxy     :     0.023464

  5 B s       :     2.675080  s :     2.675080
      pz      :     0.791699  p :     2.181669
      px      :     0.781138
      py      :     0.608832
      dz2     :     0.040599  d :     0.143040
      dxz     :     0.029789
      dyz     :     0.021036
      dx2y2   :     0.028151
      dxy     :     0.023464

  6 B s       :     2.675205  s :     2.675205
      pz      :     0.791324  p :     2.181387
      px      :     0.608847
      py      :     0.781216
      dz2     :     0.040576  d :     0.143012
      dxz     :     0.021029
      dyz     :     0.029801
      dx2y2   :     0.028136
      dxy     :     0.023470

  7 B s       :     2.675043  s :     2.675043
      pz      :     0.791370  p :     2.182393
      px      :     0.867405
      py      :     0.523617
      dz2     :     0.040568  d :     0.142945
      dxz     :     0.034148
      dyz     :     0.016631
      dx2y2   :     0.021115
      dxy     :     0.030482

  8 B s       :     2.675150  s :     2.675150
      pz      :     0.791620  p :     2.181591
      px      :     0.608795
      py      :     0.781176
      dz2     :     0.040588  d :     0.143017
      dxz     :     0.021035
      dyz     :     0.029778
      dx2y2   :     0.028154
      dxy     :     0.023462

  9 B s       :     2.675096  s :     2.675096
      pz      :     0.791506  p :     2.181762
      px      :     0.609137
      py      :     0.781120
      dz2     :     0.040588  d :     0.143011
      dxz     :     0.021034
      dyz     :     0.029788
      dx2y2   :     0.028133
      dxy     :     0.023467

 10 B s       :     2.675024  s :     2.675024
      pz      :     0.791368  p :     2.182165
      px      :     0.867401
      py      :     0.523397
      dz2     :     0.040576  d :     0.142996
      dxz     :     0.034169
      dyz     :     0.016632
      dx2y2   :     0.021128
      dxy     :     0.030490

 11 B s       :     2.674849  s :     2.674849
      pz      :     0.791638  p :     2.182337
      px      :     0.609292
      py      :     0.781408
      dz2     :     0.040618  d :     0.143073
      dxz     :     0.021048
      dyz     :     0.029779
      dx2y2   :     0.028156
      dxy     :     0.023471



                      *****************************
                      * MAYER POPULATION ANALYSIS *
                      *****************************

  NA   - Mulliken gross atomic population
  ZA   - Total nuclear charge
  QA   - Mulliken gross atomic charge
  VA   - Mayer's total valence
  BVA  - Mayer's bonded valence
  FA   - Mayer's free valence

  ATOM       NA         ZA         QA         VA         BVA        FA
  0 B      4.9995     5.0000     0.0005     4.2265     4.2265    -0.0000
  1 B      5.0004     5.0000    -0.0004     4.2282     4.2282    -0.0000
  2 B      5.0001     5.0000    -0.0001     4.2281     4.2281    -0.0000
  3 B      4.9990     5.0000     0.0010     4.2271     4.2271    -0.0000
  4 B      5.0002     5.0000    -0.0002     4.2279     4.2279     0.0000
  5 B      5.0009     5.0000    -0.0009     4.2289     4.2289     0.0000
  6 B      5.0013     5.0000    -0.0013     4.2290     4.2290     0.0000
  7 B      4.9989     5.0000     0.0011     4.2261     4.2261    -0.0000
  8 B      5.0010     5.0000    -0.0010     4.2286     4.2286    -0.0000
  9 B      5.0001     5.0000    -0.0001     4.2280     4.2280     0.0000
 10 B      5.0000     5.0000     0.0000     4.2275     4.2275     0.0000
 11 B      4.9987     5.0000     0.0013     4.2277     4.2277     0.0000

  Mayer bond orders larger than 0.100000
B(  0-B ,  1-B ) :   1.0029 B(  0-B ,  2-B ) :   0.1776 B(  0-B ,  4-B ) :   0.1773 
B(  0-B ,  5-B ) :   1.0030 B(  0-B ,  6-B ) :   0.7546 B(  0-B ,  7-B ) :   0.1197 
B(  0-B , 10-B ) :   0.1199 B(  0-B , 11-B ) :   0.7539 B(  1-B ,  2-B ) :   1.0024 
B(  1-B ,  3-B ) :   0.1780 B(  1-B ,  5-B ) :   0.1786 B(  1-B ,  6-B ) :   0.7542 
B(  1-B ,  7-B ) :   0.7543 B(  1-B ,  8-B ) :   0.1197 B(  1-B , 11-B ) :   0.1194 
B(  2-B ,  3-B ) :   1.0026 B(  2-B ,  4-B ) :   0.1786 B(  2-B ,  6-B ) :   0.1194 
B(  2-B ,  7-B ) :   0.7541 B(  2-B ,  8-B ) :   0.7548 B(  2-B ,  9-B ) :   0.1198 
B(  3-B ,  4-B ) :   1.0029 B(  3-B ,  5-B ) :   0.1779 B(  3-B ,  7-B ) :   0.1196 
B(  3-B ,  8-B ) :   0.7538 B(  3-B ,  9-B ) :   0.7546 B(  3-B , 10-B ) :   0.1197 
B(  4-B ,  5-B ) :   1.0024 B(  4-B ,  8-B ) :   0.1196 B(  4-B ,  9-B ) :   0.7544 
B(  4-B , 10-B ) :   0.7545 B(  4-B , 11-B ) :   0.1197 B(  5-B ,  6-B ) :   0.1200 
B(  5-B ,  9-B ) :   0.1195 B(  5-B , 10-B ) :   0.7541 B(  5-B , 11-B ) :   0.7548 
B(  6-B ,  7-B ) :   1.0029 B(  6-B ,  8-B ) :   0.1788 B(  6-B , 10-B ) :   0.1784 
B(  6-B , 11-B ) :   1.0022 B(  7-B ,  8-B ) :   1.0030 B(  7-B ,  9-B ) :   0.1773 
B(  7-B , 11-B ) :   0.1774 B(  8-B ,  9-B ) :   1.0025 B(  8-B , 10-B ) :   0.1778 
B(  9-B , 10-B ) :   1.0029 B(  9-B , 11-B ) :   0.1785 B( 10-B , 11-B ) :   1.0026 


-------
TIMINGS
-------

Total SCF time: 0 days 0 hours 0 min 3 sec 

Total time                  ....       3.125 sec
Sum of individual times     ....       2.625 sec  ( 84.0%)

SCF preparation             ....       0.494 sec  ( 15.8%)
Fock matrix formation       ....       1.808 sec  ( 57.9%)
  Startup                   ....       0.008 sec  (  0.4% of F)
  Split-RI-J                ....       0.704 sec  ( 38.9% of F)
  XC integration            ....       1.391 sec  ( 76.9% of F)
    XC Preparation          ....       0.000 sec  (  0.0% of XC)
    Basis function eval.    ....       0.348 sec  ( 25.0% of XC)
    Density eval.           ....       0.275 sec  ( 19.8% of XC)
    XC-Functional eval.     ....       0.038 sec  (  2.7% of XC)
    XC-Potential eval.      ....       0.311 sec  ( 22.3% of XC)
Diagonalization             ....       0.000 sec  (  0.0%)
Density matrix formation    ....       0.029 sec  (  0.9%)
Total Energy calculation    ....       0.013 sec  (  0.4%)
Population analysis         ....       0.073 sec  (  2.3%)
Orbital Transformation      ....       0.051 sec  (  1.6%)
Orbital Orthonormalization  ....       0.000 sec  (  0.0%)
DIIS solution               ....       0.050 sec  (  1.6%)
SOSCF solution              ....       0.106 sec  (  3.4%)
Finished LeanSCF after   3.2 sec

Maximum memory used throughout the entire LEANSCF-calculation: 10.5 MB


-------------------------------------------------------------------------------
                          DFT DISPERSION CORRECTION                            
                                                                               
                              DFTD3 V3.1  Rev 1                                
                          USING Becke-Johnson damping                          
-------------------------------------------------------------------------------
The BP86 functional is recognized
Active option DFTDOPT                   ...         4   

molecular C6(AA) [au] = 4067.009814 


            DFT-D V3
 parameters
 s6 scaling factor         :     1.0000 
 a1 scaling factor         :     0.3946 
 s8 scaling factor         :     3.2822 
 a2 scaling factor         :     4.8516 
 ad hoc parameters k1-k3   :    16.0000     1.3333    -4.0000 

 Edisp/kcal,au: -22.784053212526  -0.036308696082 
 E6   /kcal   :  -6.461888208 
 E8   /kcal   : -16.322165005 
 % E8         :  71.638548473 

-------------------------   ----------------
Dispersion correction           -0.036308696
-------------------------   ----------------


-------------------------   --------------------
FINAL SINGLE POINT ENERGY      -297.694543865924
-------------------------   --------------------

                                *** OPTIMIZATION RUN DONE ***



           ************************************************************
           *        Program running with 8 parallel MPI-processes     *
           *              working on a common directory               *
           ************************************************************

------------------------------------------------------------------------------
                              ORCA PROPERTY CALCULATIONS
------------------------------------------------------------------------------

GBWName                                 ... hex_antiprism_nn1.80.gbw
Number of atoms                         ...     12
Number of basis functions               ...    168
Max core memory                         ...   2500 MB

Electric properties:
Dipole moment                           ... YES
Quadrupole moment                       ...  NO
Static polarizability (Dipole/Dipole)   ...  NO
Static polarizability (Dipole/Quad.)    ...  NO
Static polarizability (Quad./Quad.)     ...  NO
Static polarizability (Velocity)        ...  NO
Static hyperpolarizability              ...  NO

Atomic electric properties:
Dipole moment                           ...  NO
Quadrupole moment                       ...  NO
Static polarizability                   ...  NO

Choice of electric origin               ... Center of mass
Position of electric origin             ...     0.000000     0.000000     0.000000

General magnetic properties:
Magnetizability                         ...  NO

EPR properties:
g-Tensor (aka g-matrix)                 ...  NO
Zero-Field splitting spin-orbit         ...  NO
Zero-field splitting spin-spin          ...  NO
Hyperfine couplings                     ...  NO (   0 nuclei)
Quadrupole couplings                    ...  NO (   0 nuclei)
Contact density                         ...  NO (   0 nuclei)

NMR properties:
Chemical shifts                         ...  NO (   0 nuclei)
Spin-rotation constants                 ...  NO (   0 nuclei)
Spin-spin couplings                     ...  NO (   0 nuclei,    0 pairs)

Choice of magnetic origin               ... GIAO
Position of magnetic origin             ...     0.000000     0.000000     0.000000

Properties with geometric perturbations:
SCF Hessian                             ...  NO
IR spectrum                             ...  NO
VCD spectrum                            ...  NO
X-ray spectroscopy properties:
SCF XES/XAS/RIXS spectra                ...  NO

SCF SOC stabilization energy            ...  NO
Diagonal Born-Oppenheimer correction    ...  NO

-------------
DIPOLE MOMENT
-------------

Method             : SCF
Type of density    : Electron Density
Multiplicity       :   1
Irrep              :   0
Energy             :  -297.6582351698424986 Eh
Basis              : AO
                                X                 Y                 Z
Electronic contribution:     -0.000062782       0.000139994       0.000038816
Nuclear contribution   :      0.000000000       0.000000000       0.000000000
                        -----------------------------------------
Total Dipole Moment    :     -0.000062782       0.000139994       0.000038816
                        -----------------------------------------
Magnitude (a.u.)       :      0.000158261
Magnitude (Debye)      :      0.000402268



--------------------
Rotational spectrum 
--------------------
 
Rotational constants in cm-1:             0.068532             0.068530             0.048295 
Rotational constants in MHz :          2054.539557          2054.478557          1447.860361 

Dipole components along the rotational axes: 
x,y,z [a.u.] :     0.000101     0.000115     0.000039 
x,y,z [Debye]:     0.000257     0.000293     0.000099 

 

Dipole moment calculation done in   0.0 sec 

Maximum memory used throughout the entire PROP-calculation: 8.2 MB

--------------------------------
SUGGESTED CITATIONS FOR THIS RUN
--------------------------------

Below you find a list of papers that are relevant to this ORCA run
We neither can nor want to force you to cite these papers, but we appreciate if you do
You receive ORCA, which is the product of decades of hard work by many enthusiastic individuals, for free
The only thing we kindly ask in return is that you cite our papers,
We deeply appreciate it, if you show your appreciation for ORCA by not just citing the generic ORCA reference.

Please note that relegating all ORCA citations to the supporting information does *not* help us.
SI sections are not indexed - citations you put there will not count into any citation statistics
But we need these citations in order to attract the funding resources that allow us to do what we are doing

Therefore, if you are a happy ORCA user, please consider citing a few of the papers listed below in the main body of your paper

In addition to the list printed below, the program has created the file hex_antiprism_nn1.80.bibtex that contains the list in bibtex format
You can import this file easily into all common literature databanks and citation aid programs

It goes without saying that in many instances, there are alternative algorithms to achieve similar
results as the ones you have gotten from ORCA. It is, of course, also the case that in some instances
ORCA just re-implements algorithms worked out by others. We are fully aware of that and we are also
fully appreciative of our colleagues work. Hence this citation list should not be read as indicating
that the listed papers, which are focused on our own work, are the only ones worth citing. It simply
meant to make it easier for users to cite ORCA specific papers. It is not a substitute for doing your
own literature research and citing the relevant literature in a scientifically appropriate manner.

List of essential papers. We consider these as the minimum necessary citations

  1. Neese, F.
     Software update: the ORCA program system, version 6.0
     WIRES Comput. Molec. Sci. 2025 15(1), e70019
     doi.org/10.1002/wcms.70019

List of papers to cite with high priority. The work reported in these papers was absolutely
necessary for this run to complete.
Our perspective: the developers of density functionals and basis sets usually get cited in chemistry papers
Good! But without the algorithms to do something with them, the functionals or basis sets would not do anything.
Hence, in our opinion, the algorithm design and method developments papers are equally worthy of getting cited

  1. Neese, F.
     An improvement of the resolution of the identity approximation for the formation of the Coulomb matrix
     J. Comp. Chem. 2003 24(14), 1740-1747
     doi.org/10.1002/jcc.10318
  2. Grimme, S.; Antony, J.; Ehrlich, S.; Krieg, H.
     A consistent and accurate ab initio parametrization of density functional dispersion correction (DFT-D) for the 94 elements H-Pu
     J. Chem. Phys. 2010 132 , 154104
     doi.org/10.1063/1.3382344
  3. Grimme, S.; Ehrlich, S.; Goerigk, L.
     Effect of the damping function in dispersion corrected density functional theory
     J. Comput. Chem. 2011 32(7), 1456-1465
     doi.org/10.1002/jcc.21759
  4. Neese, F.
     The SHARK Integral Generation and Digestion System
     J. Comp. Chem. 2022 44(3), 381
     doi.org/10.1002/jcc.26942

List of suggested additional citations. These are papers that are important in the 'surrounding' of 
of this run, or papers that preceded the highly important papers. If you like your results we are grateful for a citation.

  1. Neese, F.
     The ORCA program system
     WIRES Comput. Molec. Sci. 2012 2(1), 73-78
     doi.org/10.1002/wcms.81
  2. Neese, F.
     Software update: the ORCA program system, version 4.0
     WIRES Comput. Molec. Sci. 2018 8(1), 1-6
     doi.org/10.1002/wcms.1327
  3. Neese, F.; Wennmohs, F.; Becker, U.; Riplinger, C.
     The ORCA quantum chemistry program package
     J. Chem. Phys. 2020 152(22), 224108
     doi.org/10.1063/5.0004608
  4. Neese, F.
     Software update: The ORCA program system—Version 5.0
     WIRES Comput. Molec. Sci. 2022 12(1), e1606
     doi.org/10.1002/wcms.1606

List of optional additional citations

  1. Neese, F.
     Approximate second-order SCF convergence for spin unrestricted wavefunctions
     Chem. Phys. Lett. 2000 325(1-3), 93-98
     doi.org/10.1016/s0009-2614(00)00662-x

Timings for individual modules:

Sum of individual times          ...       72.083 sec (=   1.201 min)
Startup calculation              ...       11.520 sec (=   0.192 min)  16.0 %
SCF iterations                   ...       44.503 sec (=   0.742 min)  61.7 %
Property calculations            ...        0.711 sec (=   0.012 min)   1.0 %
SCF Gradient evaluation          ...       15.173 sec (=   0.253 min)  21.0 %
Geometry relaxation              ...        0.176 sec (=   0.003 min)   0.2 %
                             ****ORCA TERMINATED NORMALLY****
TOTAL RUN TIME: 0 days 0 hours 1 minutes 17 seconds 713 msec
