
                                 *****************
                                 * O   R   C   A *
                                 *****************

                                            #,                                       
                                            ###                                      
                                            ####                                     
                                            #####                                    
                                            ######                                   
                                           ########,                                 
                                     ,,################,,,,,                         
                               ,,#################################,,                 
                          ,,##########################################,,             
                       ,#########################################, ''#####,          
                    ,#############################################,,   '####,        
                  ,##################################################,,,,####,       
                ,###########''''           ''''###############################       
              ,#####''   ,,,,##########,,,,          '''####'''          '####       
            ,##' ,,,,###########################,,,                        '##       
           ' ,,###''''                  '''############,,,                           
         ,,##''                                '''############,,,,        ,,,,,,###''
      ,#''                                            '''#######################'''  
     '                                                          ''''####''''         
             ,#######,   #######,   ,#######,      ##                                
            ,#'     '#,  ##    ##  ,#'     '#,    #''#        ,####,    ,#,          
            ##       ##  ##   ,#'  ##            #'  '#       #'       ,# #          
            ##       ##  #######   ##           ,######,      #####,      #          
            '#,     ,#'  ##    ##  '#,     ,#' ,#      #,     #,   #      #          
             '#######'   ##     ##  '#######'  #'      '#     '####' #    #          



                #########################################################
                #                        -***-                          #
                #          Department of theory and spectroscopy        #
                #                                                       #
                #                      Frank Neese                      #
                #                                                       #
                #     Directorship, Architecture, Infrastructure        #
                #                    SHARK, DRIVERS                     #
                #        Core code/Algorithms in most modules           #
                #                                                       #
                #        Max Planck Institute fuer Kohlenforschung      #
                #                Kaiser Wilhelm Platz 1                 #
                #                 D-45470 Muelheim/Ruhr                 #
                #                      Germany                          #
                #                                                       #
                #                  All rights reserved                  #
                #                        -***-                          #
                #########################################################


                         Program Version 6.1.1  -  RELEASE   -
                                (GIT: $487d211c$)
                          ($2025-11-21 10:33:24 +0100$)
                                                                         
                                  - NO-DMRG VERSION -                    
                                                                         


 With contributions from (in alphabetic order):
[Max-Planck-Institut fuer Kohlenforschung]                               
  Daniel Aravena         : Magnetic Suceptibility                        
  Michael Atanasov       : Ab Initio Ligand Field Theory (pilot matlab implementation)
  Alexander A. Auer      : GIAO ZORA, VPT2 properties, NMR spectrum      
  Ute Becker             : All parallelization in ORCA, NUMFREQ, NUMCALC 
  Giovanni Bistoni       : ED, misc. LED, open-shell LED, HFLD           
  Dmytro Bykov           : pre 5.0 version of the SCF Hessian            
  Marcos Casanova-Páez   : Triplet and SCS-CIS(D). UHF-(DLPNO)-IP/EA/STEOM-CCSD. UHF-CVS-IP/STEOM-CCSD   
  Vijay G. Chilkuri      : MRCI spin determinant printing, contributions to CSF-ICE 
  Pauline Colinet        : FMM embedding                                 
  Dipayan Datta          : RHF DLPNO-CCSD density                        
  Achintya Kumar Dutta   : EOM-CC, STEOM-CC                              
  Nicolas Foglia         : Exact transition moments, OPA infrastructure, MCD improvements    
  Dmitry Ganyushin       : Spin-Orbit,Spin-Spin,Magnetic field MRCI      
  Miquel Garcia-Rates    : C-PCM and meta-GGA Hessian, CCSD/C-PCM, Gaussian charge scheme 
  Tiago L. C. Gouveia    : GS-ROHF, GS-ROCIS                             
  Yang Guo               : DLPNO-NEVPT2, F12-NEVPT2, CIM, IAO-localization        
  Andreas Hansen         : Spin unrestricted coupled pair/coupled cluster methods 
  Ingolf Harden          : AUTO-CI MPn and infrastructure                
  Benjamin Helmich-Paris : MC-RPA, TRAH-(SCF,CASSCF), AVAS, COSX integrals, SCF dyn. polar., MC-PDFT, srDFT 
  Lee Huntington         : MR-EOM, pCC                                   
  Robert Izsak           : Overlap fitted RIJCOSX, COSX-SCS-MP3, EOM     
  Riya Kayal             : Wick's Theorem for AUTO-CI, AUTO-CI UHF-CCSDT 
  Emily Kempfer          : AUTO-CI RHF CISDT and CCSDT, approximate NEVPT4
  Christian Kollmar      : KDIIS, OOCD, Brueckner-CCSD(T), CCSD density, CASPT2, CASPT2-K, improved NEVPT2 
  Axel Koslowski         : Symmetry handling                             
  Simone Kossmann        : meta-GGA functionals, TD-DFT gradient, OOMP2, (MP2 Hessian; deprecated post 5.0) 
  Lucas Lang             : DCDCAS, Hyperfine gauge corrections, ICE-SOC+SSC
  Marvin Lechner         : AUTO-CI (C++ implementation), FIC-MRCC        
  Spencer Leger          : CASSCF response                               
  Dagmar Lenk            : GEPOL surface, SMD, ORCA-2-JSON               
  Dimitrios Liakos       : Extrapolation schemes; Compound Job, Property file
  Dimitrios Manganas     : Further ROCIS development; embedding schemes. LFT, Crystal Embedding 
  Dimitrios Pantazis     : SARC Basis sets                               
  Anastasios Papadopoulos: AUTO-CI, single reference methods and gradients 
  Taras Petrenko         : pre 6.0 DFT Hessian and TD-DFT gradient,  ECA, NRVS 
  Petra Pikulova         : Analytic Raman intensities                    
  Peter Pinski           : DLPNO-MP2, DLPNO-MP2 Gradient                 
  Shashank Vittal Rao    : ES-AILFT, MagRelax                            
  Christoph Reimann      : Effective Core Potentials                     
  Marius Retegan         : Local ZFS, SOC                                
  Christoph Riplinger    : Optimizer, TS searches, QM/MM, DLPNO-CCSD(T), (RO)-DLPNO pert. Triples 
  Michael Roemelt        : Original ROCIS implementation, recursive CI coupling coefficients
  Masaaki Saitow         : Open-shell DLPNO-CCSD energy and density      
  Barbara Sandhoefer     : DKH picture change effects                    
  Yorick L. A. Schmerwitz: GMF and freeze-and-release deltaSCF, NEB S-IDPP initial path                    
  Kantharuban Sivalingam : CASSCF convergence/infrastructure, NEVPT2, NEVPT3, NEVPT4(SD), FIC-MRCI and CEPA variants
  Bernardo de Souza      : ESD, SOC TD-DFT                               
  Georgi L. Stoychev     : AutoAux, RI-MP2 NMR, DLPNO-MP2 response, X2C  
  Van Anh Tran           : RI-MP2 g-tensors                              
  Willem Van den Heuvel  : Paramagnetic NMR                              
  Zikuan Wang            : NOTCH, Electric field optimization            
  Frank Wennmohs         : Technical directorship and infrastructure     
  Hang Xu                : AUTO-CI-Response properties                   
                                                                         
[FACCTs GmbH]                                                            
  Markus Bursch, Nicolas Foglia, Miquel Garcia-Rates, Ingolf Harden, Hagen Neugebauer, Anastasios Papadopoulos, 
  Christoph Riplinger, Bernardo de Souza, Georgi L. Stoychev                                                    
                                                                 
  APM, various basis sets, CI-OPT, improved COSX, DLPNO-Multilevel,           
  DOCKER, DRACO, updates on ESD, Fragmentator, GOAT, IRC, LR-CPCM, L-BFGS, MBIS, meta-GGA TD-DFT gradient, ML-optimized integration grids, 
  MM, NACMEs, nearIR, NEB, NEB-TS, NL-DFT gradient (VV10), 2- and 3-layer-ONIOM, interface openCOSMO-RS, QMMM,   
  Crystal-QMMM, RESP, rigid body optimization, SF, symmetry and pop. for TD-DFT, various functionals, SOLVATOR                                   
                                                                         
[Other institutions]                                                     
  V. Asgeirsson          : NEB                                           
  Christoph Bannwarth    : sTDA-DFT, sTD-DFT, PBEh-3c, B97-3c, D3        
  Giovanni Bistoni       : ETS/NOCV, ADLD/ADEX, COVALED                  
  Martin Brehm           : Molecular dynamics                            
  Ronald Cardenas        : ETS/NOCV                                      
  Martina Colucci        : COVALED                                       
  Sebastian Ehlert       : rSCAN, r2SCAN, r2SCAN-3c, D4, dhf basis sets  
  Marvin Friede          : D4 for Fr, Ra, Ac-Lr                          
  Lars Goerigk           : TD-DFT with DH, B97 family of functionals     
  Stefan Grimme          : VdW corrections, initial TS optimization, DFT functionals, gCP, sTDA/sTD-DF 
  Waldemar Hujo          : DFT-NL                                        
  H. Jonsson             : NEB                                           
  Holger Kruse           : gCP                                           
  Marcel Mueller         : wB97X-3c, vDZP basis set                      
  Hagen Neugebauer       : wr2SCAN, Native XTB                           
  Gianluca Regni         : ADLD/ADEX                                     
  Tobias Risthaus        : pre 6.0 range-separated hybrid DFT and stability analysis
  Lukas Wittmann         : regularized MP2, r2SCAN double-hybrids, wr2SCAN        
                                                                         
We gratefully acknowledge several colleagues who have allowed us to      
interface, adapt or use parts of their codes:                            
  Ed Valeev, F. Pavosevic, A. Kumar             : LibInt (2-el integral package), F12 methods 
  Garnet Chan, S. Sharma, J. Yang, R. Olivares  : DMRG                   
  Ulf Ekstrom                                   : XCFun DFT Library      
  Mihaly Kallay                                 : mrcc  (arbitrary order and MRCC methods)
  Frank Weinhold                                : gennbo (NPA and NBO analysis)           
  Simon Mueller                                 : openCOSMO-RS                            
  Christopher J. Cramer and Donald G. Truhlar   : smd solvation model                     
  S Lehtola, MJT Oliveira, MAL Marques          : LibXC Library                           
  Liviu Ungur et al                             : ANISO software                          


 Your calculation uses the libint2 library for the computation of 2-el integrals
 For citations please refer to: http://libint.valeyev.net

 Your ORCA version has been built with support for libXC version: 7.0.0
 For citations please refer to: https://libxc.gitlab.io

 This ORCA versions uses:
   CBLAS   interface :  Fast vector & matrix operations
   LAPACKE interface :  Fast linear algebra routines
   SCALAPACK package :  Parallel linear algebra routines
   Shared memory     :  Shared parallel matrices
   BLAS/LAPACK       :  OpenBLAS 0.3.29  USE64BITINT DYNAMIC_ARCH NO_AFFINITY Zen SINGLE_THREADED
        Core in use  :  Zen
   Copyright (c) 2011-2014, The OpenBLAS Project


  ***********************************
  * Starting time: Thu Apr 23 16:32:47 2026
  * Host name:     vmi3233575
  * Process ID:    1342288
  * Working dir.:  /root/b12_scan/jobs/hex_prism_nn2.50
  ***********************************

NOTE: MaxCore=2500 MB was set to SCF,MP2,MDCI,CIPSI,MRCI,RASCI and CIS
      => If you want to overwrite this, your respective input block should be placed after the MaxCore statement
Your calculation utilizes the atom-pairwise dispersion correction
with the Becke-Johnson damping scheme (D3BJ)


================================================================================

----- Orbital basis set information -----
Your calculation utilizes the basis: def2-SVP
   F. Weigend and R. Ahlrichs, Phys. Chem. Chem. Phys. 7, 3297 (2005).

----- AuxJ basis set information -----
Your calculation utilizes the auxiliary basis: def2/J
   H-Rn: F. Weigend, Phys. Chem. Chem. Phys. 8, 1057 (2006).
   Fr-Lr: K. Eichkorn, F. Weigend, O. Treutler, R. Ahlrichs; Theor. Chem. Acc. 97, 119 (1997).

================================================================================
                                        WARNINGS
                       Please study these warnings very carefully!
================================================================================


WARNING: Geometry Optimization
  ===> : Switching off AutoStart
         For restart on a previous wavefunction, please use MOREAD

================================================================================
                                       INPUT FILE
================================================================================
NAME = hex_prism_nn2.50.inp
|  1> ! BP86 def2-SVP def2/J RI Opt TightSCF D3BJ
|  2> ! SlowConv
|  3> 
|  4> %pal nprocs 8 end
|  5> %maxcore 2500
|  6> 
|  7> %geom
|  8>   MaxIter 300
|  9> end
| 10> 
| 11> * xyz 0 1
| 12> B      3.12500000     -0.00000000      1.25000000
| 13> B      3.12500000     -0.00000000     -1.25000000
| 14> B      1.56250000      2.70632939      1.25000000
| 15> B      1.56250000      2.70632939     -1.25000000
| 16> B     -1.56250000      2.70632939      1.25000000
| 17> B     -1.56250000      2.70632939     -1.25000000
| 18> B     -3.12500000      0.00000000      1.25000000
| 19> B     -3.12500000      0.00000000     -1.25000000
| 20> B     -1.56250000     -2.70632939      1.25000000
| 21> B     -1.56250000     -2.70632939     -1.25000000
| 22> B      1.56250000     -2.70632939      1.25000000
| 23> B      1.56250000     -2.70632939     -1.25000000
| 24> *
| 25> 
| 26>                          ****END OF INPUT****
================================================================================

                       *****************************
                       * Geometry Optimization Run *
                       *****************************

Geometry optimization settings:
Update method            Update   .... BFGS
Choice of coordinates    CoordSys .... (2022) Redundant Internals
Initial Hessian          InHess   .... Almloef's Model
Max. no of cycles        MaxIter  .... 300

Convergence Tolerances:
Energy Change            TolE     ....  5.0000e-06 Eh
Max. Gradient            TolMAXG  ....  3.0000e-04 Eh/bohr
RMS Gradient             TolRMSG  ....  1.0000e-04 Eh/bohr
Max. Displacement        TolMAXD  ....  4.0000e-03 bohr
RMS Displacement         TolRMSD  ....  2.0000e-03 bohr
Strict Convergence                .... False

------------------------------------------------------------------------------
                        ORCA OPTIMIZATION COORDINATE SETUP
------------------------------------------------------------------------------

The optimization will be done in redundant internal coordinates (2022)
Making redundant internal coordinates   ...  (2022 redundants) done
Evaluating the initial hessian          ...  (Almloef) done
Evaluating the coordinates              ...  done
Calculating the B-matrix                .... done
Calculating the G-matrix                .... done
The number of degrees of freedom        ....  246

    -----------------------------------------------------------------
                    Redundant Internal Coordinates


    -----------------------------------------------------------------
         Definition                    Initial Value    Approx d2E/dq
    -----------------------------------------------------------------
      1. B(B   1,B   0)                  2.5000         0.014205   
      2. B(B   2,B   0)                  3.1250         0.010000   
      3. B(B   2,B   1)                  4.0020         0.010000   
      4. B(B   3,B   1)                  3.1250         0.010000   
      5. B(B   3,B   2)                  2.5000         0.014205   
      6. B(B   4,B   2)                  3.1250         0.010000   
      7. B(B   4,B   3)                  4.0020         0.010000   
      8. B(B   5,B   3)                  3.1250         0.010000   
      9. B(B   5,B   4)                  2.5000         0.014205   
     10. B(B   6,B   5)                  4.0020         0.010000   
     11. B(B   6,B   4)                  3.1250         0.010000   
     12. B(B   7,B   6)                  2.5000         0.014205   
     13. B(B   7,B   5)                  3.1250         0.010000   
     14. B(B   8,B   6)                  3.1250         0.010000   
     15. B(B   9,B   7)                  3.1250         0.010000   
     16. B(B   9,B   6)                  4.0020         0.010000   
     17. B(B   9,B   8)                  2.5000         0.014205   
     18. B(B  10,B   8)                  3.1250         0.010000   
     19. B(B  10,B   1)                  4.0020         0.010000   
     20. B(B  10,B   0)                  3.1250         0.010000   
     21. B(B  11,B   8)                  4.0020         0.010000   
     22. B(B  11,B   1)                  3.1250         0.010000   
     23. B(B  11,B  10)                  2.5000         0.014205   
     24. B(B  11,B   9)                  3.1250         0.010000   
     25. A(B   1,B   0,B  10)           90.0000         0.127754   
     26. A(B   2,B   0,B  10)          120.0000         0.112048   
     27. A(B   1,B   0,B   2)           90.0000         0.127754   
     28. A(B   0,B   1,B   3)           90.0000         0.127754   
     29. A(B  10,B   1,B  11)           38.6598         0.100116   
     30. A(B   0,B   1,B  10)           51.3402         0.107692   
     31. A(B   2,B   1,B   3)           38.6598         0.100116   
     32. A(B   3,B   1,B  10)          112.9815         0.100116   
     33. A(B   2,B   1,B  11)          112.9815         0.100116   
     34. A(B   0,B   1,B  11)           90.0000         0.127754   
     35. A(B   2,B   1,B  10)           85.1029         0.094361   
     36. A(B   3,B   1,B  11)          120.0000         0.112048   
     37. A(B   0,B   1,B   2)           51.3402         0.107692   
     38. A(B   1,B   2,B   4)          112.9815         0.100116   
     39. A(B   0,B   2,B   4)          120.0000         0.112048   
     40. A(B   3,B   2,B   4)           90.0000         0.127754   
     41. A(B   1,B   2,B   3)           51.3402         0.107692   
     42. A(B   0,B   2,B   3)           90.0000         0.127754   
     43. A(B   0,B   2,B   1)           38.6598         0.100116   
     44. A(B   1,B   3,B   4)          112.9815         0.100116   
     45. A(B   2,B   3,B   5)           90.0000         0.127754   
     46. A(B   2,B   3,B   4)           51.3402         0.107692   
     47. A(B   4,B   3,B   5)           38.6598         0.100116   
     48. A(B   1,B   3,B   5)          120.0000         0.112048   
     49. A(B   1,B   3,B   2)           90.0000         0.127754   
     50. A(B   5,B   4,B   6)           90.0000         0.127754   
     51. A(B   2,B   4,B   6)          120.0000         0.112048   
     52. A(B   2,B   4,B   5)           90.0000         0.127754   
     53. A(B   2,B   4,B   3)           38.6598         0.100116   
     54. A(B   3,B   4,B   5)           51.3402         0.107692   
     55. A(B   3,B   4,B   6)          112.9815         0.100116   
     56. A(B   3,B   5,B   6)          112.9815         0.100116   
     57. A(B   4,B   5,B   6)           51.3402         0.107692   
     58. A(B   3,B   5,B   7)          120.0000         0.112048   
     59. A(B   3,B   5,B   4)           90.0000         0.127754   
     60. A(B   6,B   5,B   7)           38.6598         0.100116   
     61. A(B   4,B   5,B   7)           90.0000         0.127754   
     62. A(B   4,B   6,B   7)           90.0000         0.127754   
     63. A(B   5,B   6,B   9)           85.1029         0.094361   
     64. A(B   5,B   6,B   8)          112.9815         0.100116   
     65. A(B   4,B   6,B   5)           38.6598         0.100116   
     66. A(B   8,B   6,B   9)           38.6598         0.100116   
     67. A(B   4,B   6,B   9)          112.9815         0.100116   
     68. A(B   4,B   6,B   8)          120.0000         0.112048   
     69. A(B   7,B   6,B   8)           90.0000         0.127754   
     70. A(B   5,B   6,B   7)           51.3402         0.107692   
     71. A(B   7,B   6,B   9)           51.3402         0.107692   
     72. A(B   5,B   7,B   9)          120.0000         0.112048   
     73. A(B   5,B   7,B   6)           90.0000         0.127754   
     74. A(B   6,B   7,B   9)           90.0000         0.127754   
     75. A(B   6,B   8,B   9)           90.0000         0.127754   
     76. A(B   6,B   8,B  11)          112.9815         0.100116   
     77. A(B   6,B   8,B  10)          120.0000         0.112048   
     78. A(B   9,B   8,B  11)           51.3402         0.107692   
     79. A(B   9,B   8,B  10)           90.0000         0.127754   
     80. A(B  10,B   8,B  11)           38.6598         0.100116   
     81. A(B   6,B   9,B  11)          112.9815         0.100116   
     82. A(B   6,B   9,B   8)           51.3402         0.107692   
     83. A(B   8,B   9,B  11)           90.0000         0.127754   
     84. A(B   6,B   9,B   7)           38.6598         0.100116   
     85. A(B   7,B   9,B  11)          120.0000         0.112048   
     86. A(B   7,B   9,B   8)           90.0000         0.127754   
     87. A(B   1,B  10,B  11)           51.3402         0.107692   
     88. A(B   0,B  10,B  11)           90.0000         0.127754   
     89. A(B   0,B  10,B   1)           38.6598         0.100116   
     90. A(B   8,B  10,B  11)           90.0000         0.127754   
     91. A(B   1,B  10,B   8)          112.9815         0.100116   
     92. A(B   0,B  10,B   8)          120.0000         0.112048   
     93. A(B   8,B  11,B   9)           38.6598         0.100116   
     94. A(B   1,B  11,B   9)          120.0000         0.112048   
     95. A(B   9,B  11,B  10)           90.0000         0.127754   
     96. A(B   1,B  11,B   8)          112.9815         0.100116   
     97. A(B   8,B  11,B  10)           51.3402         0.107692   
     98. A(B   1,B  11,B  10)           90.0000         0.127754   
     99. D(B  10,B   1,B   0,B   2)   -120.0000         0.010000   
    100. D(B   3,B   1,B   0,B  10)    120.0000         0.010000   
    101. D(B  11,B   1,B   0,B  10)     -0.0000         0.010000   
    102. D(B   2,B   1,B   0,B  10)    120.0000         0.010000   
    103. D(B  11,B   1,B   0,B   2)   -120.0000         0.010000   
    104. D(B   3,B   1,B   0,B   2)      0.0000         0.010000   
    105. D(B   3,B   2,B   1,B   0)    180.0000         0.010000   
    106. D(B   3,B   2,B   1,B  10)   -137.2555         0.010000   
    107. D(B   0,B   2,B   1,B  10)     42.7445         0.010000   
    108. D(B   0,B   2,B   1,B  11)     70.1673         0.010000   
    109. D(B   4,B   2,B   0,B   1)     90.0000         0.010000   
    110. D(B   3,B   2,B   1,B  11)   -109.8327         0.010000   
    111. D(B   4,B   2,B   0,B  10)      0.0000         0.010000   
    112. D(B   4,B   2,B   1,B   0)   -109.8327         0.010000   
    113. D(B   0,B   2,B   1,B   3)    180.0000         0.010000   
    114. D(B   3,B   2,B   0,B  10)    -90.0000         0.010000   
    115. D(B   1,B   2,B   0,B  10)    -90.0000         0.010000   
    116. D(B   3,B   2,B   0,B   1)      0.0000         0.010000   
    117. D(B   4,B   3,B   2,B   1)    120.0000         0.010000   
    118. D(B   4,B   3,B   2,B   0)    120.0000         0.010000   
    119. D(B   5,B   3,B   2,B   1)    120.0000         0.010000   
    120. D(B   4,B   3,B   1,B  10)      0.0000         0.010000   
    121. D(B   4,B   3,B   1,B   2)    -47.2695         0.010000   
    122. D(B   4,B   3,B   1,B  11)     42.7305         0.010000   
    123. D(B   4,B   3,B   1,B   0)    -47.2695         0.010000   
    124. D(B   2,B   3,B   1,B  10)     47.2695         0.010000   
    125. D(B   2,B   3,B   1,B   0)      0.0000         0.010000   
    126. D(B   1,B   3,B   2,B   0)      0.0000         0.010000   
    127. D(B   1,B   3,B   2,B   4)   -120.0000         0.010000   
    128. D(B   5,B   3,B   2,B   0)    120.0000         0.010000   
    129. D(B   2,B   3,B   1,B  11)     90.0000         0.010000   
    130. D(B   6,B   4,B   3,B   2)   -109.8327         0.010000   
    131. D(B   5,B   4,B   3,B   1)   -109.8327         0.010000   
    132. D(B   5,B   4,B   3,B   2)    180.0000         0.010000   
    133. D(B   2,B   4,B   3,B   1)     70.1673         0.010000   
    134. D(B   3,B   4,B   2,B   1)    -47.2695         0.010000   
    135. D(B   6,B   4,B   2,B   0)      0.0000         0.010000   
    136. D(B   2,B   4,B   3,B   5)    180.0000         0.010000   
    137. D(B   5,B   4,B   2,B   1)    -47.2695         0.010000   
    138. D(B   5,B   4,B   2,B   0)    -90.0000         0.010000   
    139. D(B   5,B   4,B   2,B   3)      0.0000         0.010000   
    140. D(B   6,B   4,B   3,B   1)    -39.6655         0.010000   
    141. D(B   3,B   4,B   2,B   0)    -90.0000         0.010000   
    142. D(B   7,B   5,B   4,B   2)    120.0000         0.010000   
    143. D(B   6,B   5,B   4,B   3)    120.0000         0.010000   
    144. D(B   6,B   5,B   4,B   2)    120.0000         0.010000   
    145. D(B   6,B   5,B   3,B   1)     42.7305         0.010000   
    146. D(B   6,B   5,B   3,B   4)    -47.2695         0.010000   
    147. D(B   3,B   5,B   4,B   6)   -120.0000         0.010000   
    148. D(B   6,B   5,B   3,B   2)    -47.2695         0.010000   
    149. D(B   4,B   5,B   3,B   1)     90.0000         0.010000   
    150. D(B   4,B   5,B   3,B   2)      0.0000         0.010000   
    151. D(B   3,B   5,B   4,B   2)      0.0000         0.010000   
    152. D(B   7,B   5,B   4,B   3)    120.0000         0.010000   
    153. D(B   7,B   5,B   3,B   2)    -90.0000         0.010000   
    154. D(B   5,B   6,B   4,B   2)    -90.0000         0.010000   
    155. D(B   9,B   6,B   4,B   3)      0.0000         0.010000   
    156. D(B   8,B   6,B   4,B   3)     42.7305         0.010000   
    157. D(B   8,B   6,B   4,B   2)      0.0000         0.010000   
    158. D(B   8,B   6,B   4,B   5)     90.0000         0.010000   
    159. D(B   9,B   6,B   4,B   5)     47.2695         0.010000   
    160. D(B   4,B   6,B   5,B   3)     70.1673         0.010000   
    161. D(B   9,B   6,B   4,B   2)    -42.7305         0.010000   
    162. D(B   9,B   6,B   5,B   3)    -67.0883         0.010000   
    163. D(B   9,B   6,B   5,B   4)   -137.2555         0.010000   
    164. D(B   8,B   6,B   5,B   7)     70.1673         0.010000   
    165. D(B   8,B   6,B   5,B   3)    -39.6655         0.010000   
    166. D(B   8,B   6,B   5,B   4)   -109.8327         0.010000   
    167. D(B   4,B   6,B   5,B   7)   -180.0000         0.010000   
    168. D(B   5,B   7,B   6,B   9)   -120.0000         0.010000   
    169. D(B   5,B   7,B   6,B   4)     -0.0000         0.010000   
    170. D(B   9,B   7,B   6,B   5)    120.0000         0.010000   
    171. D(B   9,B   7,B   6,B   8)      0.0000         0.010000   
    172. D(B   9,B   7,B   6,B   4)    120.0000         0.010000   
    173. D(B   9,B   7,B   5,B   6)    -90.0000         0.010000   
    174. D(B   9,B   7,B   5,B   4)    -90.0000         0.010000   
    175. D(B   6,B   7,B   5,B   4)      0.0000         0.010000   
    176. D(B   5,B   7,B   6,B   8)   -120.0000         0.010000   
    177. D(B   6,B   7,B   5,B   3)     90.0000         0.010000   
    178. D(B   9,B   7,B   5,B   3)      0.0000         0.010000   
    179. D(B  11,B   8,B   6,B   9)     47.2695         0.010000   
    180. D(B  11,B   8,B   6,B   4)    -42.7305         0.010000   
    181. D(B  10,B   8,B   6,B   7)     90.0000         0.010000   
    182. D(B  10,B   8,B   6,B   5)     42.7305         0.010000   
    183. D(B  10,B   8,B   6,B   9)     90.0000         0.010000   
    184. D(B  11,B   8,B   6,B   5)      0.0000         0.010000   
    185. D(B  10,B   8,B   6,B   4)      0.0000         0.010000   
    186. D(B   7,B   9,B   8,B  11)   -120.0000         0.010000   
    187. D(B   7,B   9,B   8,B  10)   -120.0000         0.010000   
    188. D(B   6,B   9,B   8,B  10)   -120.0000         0.010000   
    189. D(B  11,B   9,B   8,B   6)    120.0000         0.010000   
    190. D(B  11,B   9,B   8,B  10)      0.0000         0.010000   
    191. D(B   6,B   9,B   7,B   5)     90.0000         0.010000   
    192. D(B  11,B   9,B   7,B   5)      0.0000         0.010000   
    193. D(B  11,B   9,B   7,B   6)    -90.0000         0.010000   
    194. D(B   8,B   9,B   7,B   5)     90.0000         0.010000   
    195. D(B   8,B   9,B   7,B   6)      0.0000         0.010000   
    196. D(B  11,B   9,B   6,B   7)    109.8327         0.010000   
    197. D(B  11,B   9,B   6,B   5)     67.0883         0.010000   
    198. D(B  11,B   9,B   6,B   8)    -70.1673         0.010000   
    199. D(B  11,B   9,B   6,B   4)     39.6655         0.010000   
    200. D(B   6,B   9,B   8,B  11)   -120.0000         0.010000   
    201. D(B   8,B   9,B   6,B   7)    180.0000         0.010000   
    202. D(B   8,B   9,B   6,B   5)    137.2555         0.010000   
    203. D(B   8,B   9,B   6,B   4)    109.8327         0.010000   
    204. D(B   1,B  10,B   8,B   9)     47.2695         0.010000   
    205. D(B   1,B  10,B   8,B  11)     47.2695         0.010000   
    206. D(B   0,B  10,B   8,B   6)      0.0000         0.010000   
    207. D(B   0,B  10,B   8,B  11)     90.0000         0.010000   
    208. D(B   8,B  10,B   1,B   0)    109.8327         0.010000   
    209. D(B  11,B  10,B   1,B   3)    109.8327         0.010000   
    210. D(B  11,B  10,B   1,B   2)    137.2555         0.010000   
    211. D(B  11,B  10,B   1,B   0)    180.0000         0.010000   
    212. D(B   0,B  10,B   1,B  11)   -180.0000         0.010000   
    213. D(B   0,B  10,B   1,B   3)    -70.1673         0.010000   
    214. D(B   0,B  10,B   1,B   2)    -42.7445         0.010000   
    215. D(B   8,B  10,B   0,B   2)      0.0000         0.010000   
    216. D(B   0,B  10,B   8,B   9)     90.0000         0.010000   
    217. D(B   8,B  10,B   0,B   1)    -90.0000         0.010000   
    218. D(B  11,B  10,B   0,B   2)     90.0000         0.010000   
    219. D(B  11,B  10,B   0,B   1)      0.0000         0.010000   
    220. D(B   1,B  10,B   8,B   6)    -42.7305         0.010000   
    221. D(B   1,B  10,B   0,B   2)     90.0000         0.010000   
    222. D(B   8,B  11,B   1,B   0)     47.2695         0.010000   
    223. D(B  10,B  11,B   1,B   3)    -90.0000         0.010000   
    224. D(B  10,B  11,B   1,B   2)    -47.2695         0.010000   
    225. D(B  10,B  11,B   1,B   0)      0.0000         0.010000   
    226. D(B   9,B  11,B  10,B   1)   -120.0000         0.010000   
    227. D(B   9,B  11,B  10,B   0)   -120.0000         0.010000   
    228. D(B   8,B  11,B  10,B   1)   -120.0000         0.010000   
    229. D(B   8,B  11,B  10,B   0)   -120.0000         0.010000   
    230. D(B   1,B  11,B  10,B   8)    120.0000         0.010000   
    231. D(B   1,B  11,B   9,B   7)      0.0000         0.010000   
    232. D(B   1,B  11,B   9,B   6)    -42.7305         0.010000   
    233. D(B   1,B  11,B   9,B   8)    -90.0000         0.010000   
    234. D(B  10,B  11,B   9,B   7)     90.0000         0.010000   
    235. D(B  10,B  11,B   9,B   6)     47.2695         0.010000   
    236. D(B  10,B  11,B   9,B   8)      0.0000         0.010000   
    237. D(B   9,B  11,B   8,B  10)    180.0000         0.010000   
    238. D(B   1,B  11,B   8,B   6)     39.6655         0.010000   
    239. D(B   1,B  11,B   8,B   9)    109.8327         0.010000   
    240. D(B   1,B  11,B  10,B   0)     -0.0000         0.010000   
    241. D(B   1,B  11,B   8,B  10)    -70.1673         0.010000   
    242. D(B  10,B  11,B   8,B   6)    109.8327         0.010000   
    243. D(B  10,B  11,B   8,B   9)    180.0000         0.010000   
    244. D(B   8,B  11,B   1,B  10)     47.2695         0.010000   
    245. D(B   8,B  11,B   1,B   3)    -42.7305         0.010000   
    246. D(B   8,B  11,B   1,B   2)      0.0000         0.010000   
    -----------------------------------------------------------------

Number of atoms                         .... 12
Number of degrees of freedom            .... 246


         *************************************************************
         *                GEOMETRY OPTIMIZATION CYCLE   1            *
         *************************************************************
---------------------------------
CARTESIAN COORDINATES (ANGSTROEM)
---------------------------------
  B      3.125000   -0.000000    1.250000
  B      3.125000   -0.000000   -1.250000
  B      1.562500    2.706329    1.250000
  B      1.562500    2.706329   -1.250000
  B     -1.562500    2.706329    1.250000
  B     -1.562500    2.706329   -1.250000
  B     -3.125000    0.000000    1.250000
  B     -3.125000    0.000000   -1.250000
  B     -1.562500   -2.706329    1.250000
  B     -1.562500   -2.706329   -1.250000
  B      1.562500   -2.706329    1.250000
  B      1.562500   -2.706329   -1.250000

----------------------------
CARTESIAN COORDINATES (A.U.)
----------------------------
  NO LB      ZA    FRAG     MASS         X           Y           Z
   0 B     5.0000    0    10.810    5.905394   -0.000000    2.362158
   1 B     5.0000    0    10.810    5.905394   -0.000000   -2.362158
   2 B     5.0000    0    10.810    2.952697    5.114221    2.362158
   3 B     5.0000    0    10.810    2.952697    5.114221   -2.362158
   4 B     5.0000    0    10.810   -2.952697    5.114221    2.362158
   5 B     5.0000    0    10.810   -2.952697    5.114221   -2.362158
   6 B     5.0000    0    10.810   -5.905394    0.000000    2.362158
   7 B     5.0000    0    10.810   -5.905394    0.000000   -2.362158
   8 B     5.0000    0    10.810   -2.952697   -5.114221    2.362158
   9 B     5.0000    0    10.810   -2.952697   -5.114221   -2.362158
  10 B     5.0000    0    10.810    2.952697   -5.114221    2.362158
  11 B     5.0000    0    10.810    2.952697   -5.114221   -2.362158

--------------------------------
INTERNAL COORDINATES (ANGSTROEM)
--------------------------------
 B      0   0   0     0.000000000000     0.00000000     0.00000000
 B      1   0   0     2.500000000000     0.00000000     0.00000000
 B      1   2   0     3.125000002748    90.00000000     0.00000000
 B      3   1   2     2.500000000000    90.00000000     0.00000000
 B      3   1   2     3.125000000000   119.99999997    90.00000000
 B      5   3   1     2.500000000000    90.00000000   270.00000000
 B      5   3   1     3.125000002748   119.99999997     0.00000000
 B      7   5   3     2.500000000000    90.00000000   270.00000000
 B      7   5   3     3.125000002748   120.00000006     0.00000000
 B      9   7   5     2.500000000000    90.00000000   270.00000000
 B      9   7   5     3.125000000000   119.99999997     0.00000000
 B     11   9   7     2.500000000000    90.00000000   270.00000000

---------------------------
INTERNAL COORDINATES (A.U.)
---------------------------
 B      0   0   0     0.000000000000     0.00000000     0.00000000
 B      1   0   0     4.724315334803     0.00000000     0.00000000
 B      1   2   0     5.905394173698    90.00000000     0.00000000
 B      3   1   2     4.724315334803    90.00000000     0.00000000
 B      3   1   2     5.905394168504   119.99999997    90.00000000
 B      5   3   1     4.724315334803    90.00000000   270.00000000
 B      5   3   1     5.905394173698   119.99999997     0.00000000
 B      7   5   3     4.724315334803    90.00000000   270.00000000
 B      7   5   3     5.905394173698   120.00000006     0.00000000
 B      9   7   5     4.724315334803    90.00000000   270.00000000
 B      9   7   5     5.905394168504   119.99999997     0.00000000
 B     11   9   7     4.724315334803    90.00000000   270.00000000

---------------------
BASIS SET INFORMATION
---------------------
There are 1 groups of distinct atoms

 Group   1 Type B   : 7s4p1d contracted to 3s2p1d pattern {511/31/1}

Atom   0B    basis set group =>   1
Atom   1B    basis set group =>   1
Atom   2B    basis set group =>   1
Atom   3B    basis set group =>   1
Atom   4B    basis set group =>   1
Atom   5B    basis set group =>   1
Atom   6B    basis set group =>   1
Atom   7B    basis set group =>   1
Atom   8B    basis set group =>   1
Atom   9B    basis set group =>   1
Atom  10B    basis set group =>   1
Atom  11B    basis set group =>   1
---------------------------------
AUXILIARY/J BASIS SET INFORMATION
---------------------------------
There are 1 groups of distinct atoms

 Group   1 Type B   : 12s5p4d2f1g contracted to 6s4p3d1f1g pattern {711111/2111/211/2/1}

Atom   0B    basis set group =>   1
Atom   1B    basis set group =>   1
Atom   2B    basis set group =>   1
Atom   3B    basis set group =>   1
Atom   4B    basis set group =>   1
Atom   5B    basis set group =>   1
Atom   6B    basis set group =>   1
Atom   7B    basis set group =>   1
Atom   8B    basis set group =>   1
Atom   9B    basis set group =>   1
Atom  10B    basis set group =>   1
Atom  11B    basis set group =>   1


           ************************************************************
           *        Program running with 8 parallel MPI-processes     *
           *              working on a common directory               *
           ************************************************************
------------------------------------------------------------------------------
                             ORCA STARTUP CALCULATIONS
                           -- RI-GTO INTEGRALS CHOSEN --
------------------------------------------------------------------------------
------------------------------------------------------------------------------
                   ___                                                        
                  /   \      - P O W E R E D   B Y -                         
                 /     \                                                     
                 |  |  |   _    _      __       _____    __    __             
                 |  |  |  | |  | |    /  \     |  _  \  |  |  /  |          
                  \  \/   | |  | |   /    \    | | | |  |  | /  /          
                 / \  \   | |__| |  /  /\  \   | |_| |  |  |/  /          
                |  |  |   |  __  | /  /__\  \  |    /   |      \           
                |  |  |   | |  | | |   __   |  |    \   |  |\   \          
                \     /   | |  | | |  |  |  |  | |\  \  |  | \   \       
                 \___/    |_|  |_| |__|  |__|  |_| \__\ |__|  \__/        
                                                                              
                      - O R C A' S   B I G   F R I E N D -                    
                                      &                                       
                       - I N T E G R A L  F E E D E R -                       
                                                                              
 v1 FN, 2020, v2 2021, v3 2022-2024                                           
------------------------------------------------------------------------------


----------------------
SHARK INTEGRAL PACKAGE
----------------------

Number of atoms                             ...     12
Number of basis functions                   ...    168
Number of shells                            ...     72
Maximum angular momentum                    ...      2
Integral batch strategy                     ... SHARK/LIBINT Hybrid
RI-J (if used) integral strategy            ... SPLIT-RIJ (Revised 2003 algorithm where possible)
Printlevel                                  ...      1
Contraction scheme used                     ... SEGMENTED contraction
Prescreening option                         ... SCHWARTZ
   Thresh                                   ... 2.500e-11
   Tcut                                     ... 2.500e-12
   Tpresel                                  ... 2.500e-12 
Coulomb Range Separation                    ... NOT USED
Exchange Range Separation                   ... NOT USED
Multipole approximations                    ... NOT USED
Finite Nucleus Model                        ... NOT USED
CABS basis                                  ... NOT available
Auxiliary Coulomb fitting basis             ... AVAILABLE
   # of basis functions in Aux-J            ...    588
   # of shells in Aux-J                     ...    180
   Maximum angular momentum in Aux-J        ...      4
Auxiliary J/K fitting basis                 ... NOT available
Auxiliary Correlation fitting basis         ... NOT available
Auxiliary 'external' fitting basis          ... NOT available

Checking pre-screening integrals            ... done (  0.0 sec) Dimension = 72
   => SHARK Basis and OBASIS are compatible. Storing Pre-screening
Shell pair information
Shell pair cut-off parameter TPreSel        ...   2.5e-12
Total number of shell pairs                 ...      2628
Shell pairs after pre-screening             ...      2346
Total number of primitive shell pairs       ...     10596
Primitive shell pairs kept                  ...      6054
          la=0 lb=0:    552 shell pairs
          la=1 lb=0:    792 shell pairs
          la=1 lb=1:    300 shell pairs
          la=2 lb=0:    360 shell pairs
          la=2 lb=1:    276 shell pairs
          la=2 lb=2:     66 shell pairs

Checking whether 4 symmetric matrices of dimension 168 fit in memory
:Max Core in MB      =   2500.00
 MB in use           =      6.38
 MB left             =   2493.62
 MB needed           =      0.43
 Data fit in memory  = YES
Calculating RI/J V-Matrix + Cholesky decomp.... done (  0.1 sec)
Calculating Nuclear repulsion               ... done (  0.0 sec) ENN=    202.669655275750 Eh

Diagonalization of the overlap matrix:
Smallest eigenvalue                        ... 6.029e-03
Time for diagonalization                   ...    0.011 sec
Threshold for overlap eigenvalues          ... 1.000e-07
Number of eigenvalues below threshold      ... 0
Time for construction of square roots      ...    0.002 sec
Total time needed                          ...    0.040 sec

-------------------
DFT GRID GENERATION
-------------------

General Integration Accuracy     IntAcc      ... 4.388
Radial Grid Type                 RadialGrid  ... OptM3 with GC (2021)
Angular Grid (max. ang.)         AngularGrid ... 4 (Lebedev-302)
Angular grid pruning method      GridPruning ... 4 (adaptive)
Weight generation scheme         WeightScheme... mBecke (2022)
Basis function cutoff            BFCut       ... 1.0000e-11
Integration weight cutoff        WCut        ... 1.0000e-14
Partially contracted basis set               ... off
Rotationally invariant grid construction     ... off
Angular grids for H and He will be reduced by one unit

Total number of grid points                  ...    73012
Total number of batches                      ...     1144
Average number of points per batch           ...       63
Average number of grid points per atom       ...     6084
Grids setup in   0.8 sec
Initializing property integral containers    ... done (  0.0 sec)

SHARK setup successfully completed in   1.1 seconds

Maximum memory used throughout the entire STARTUP-calculation: 19.6 MB


           ************************************************************
           *        Program running with 8 parallel MPI-processes     *
           *              working on a common directory               *
           ************************************************************
-------------------------------------------------------------------------------
                                 ORCA GUESS
                   Start orbitals & Density for SCF / CASSCF
-------------------------------------------------------------------------------

------------
SCF SETTINGS
------------
Hamiltonian:
 Density Functional     Method          .... DFT(GTOs)
 Exchange Functional    Exchange        .... B88
   X-Alpha parameter    XAlpha          ....  0.666667
   Becke's b parameter  XBeta           ....  0.004200
 Correlation Functional Correlation     .... P86
 LDA part of GGA corr.  LDAOpt          .... PW91-LDA
 Gradients option       PostSCFGGA      .... off
   NL short-range parameter             ....  4.400000
 RI-approximation to the Coulomb term is turned on
   Number of AuxJ basis functions       .... 588


General Settings:
 Integral files         IntName         .... hex_prism_nn2.50
 Hartree-Fock type      HFTyp           .... RHF
 Total Charge           Charge          ....    0
 Multiplicity           Mult            ....    1
 Number of Electrons    NEL             ....   60
 Basis Dimension        Dim             ....  168
 Nuclear Repulsion      ENuc            ....    202.6696552757 Eh

Convergence Acceleration:
 AO-DIIS                CNVDIIS         .... on
   Start iteration      DIISMaxIt       ....     0
   Startup error        DIISStart       ....  0.200000
   # of expansion vecs  DIISMaxEq       ....     5
   Bias factor          DIISBfac        ....   1.050
   Max. coefficient     DIISMaxC        ....  10.000
 MO-DIIS                CNVKDIIS        .... off
 Trust-Rad. Augm. Hess. CNVTRAH         .... auto
   Auto Start mean grad. ratio tolernc. ....  1.125000
   Auto Start start iteration           ....    50
   Auto Start num. interpolation iter.  ....    10
   Max. Number of Micro iterations      ....    24
   Max. Number of Macro iterations      .... Maxiter - #DIIS iter
   Number of Davidson start vectors     ....     2
   Converg. threshold    (grad. norm)   ....   1.000e-05
   Grad. Scal. Fac. for Micro threshold ....   0.100
   Minimum threshold for Micro iter.    ....   1.000e-02
   NR start threshold (gradient norm)   ....   1.000e-04
   Initial trust radius                 ....   0.400
   Minimum AH scaling param. (alpha)    ....   1.000
   Maximum AH scaling param. (alpha)    .... 1000.000
   Quad. conv. algorithm                .... NR
   White noise on init. David. guess    .... on
   Maximum white noise                  ....   0.010
   Pseudo random numbers                .... off
   Inactive MOs                         .... canonical
   Orbital update algorithm             .... Taylor
   Preconditioner                       .... Diag
   Full preconditioner red. dimension   ....   250
 SOSCF                 CNVSOSCF           .... on
   Start iteration     SOSCFMaxIt         ....   150
   Startup grad/error  SOSCFStart         ....  0.001000
   Hessian update      SOSCFHessUp        .... L-BFGS
   Autom. constraints  SOSCFAutoConstrain .... off
 Level Shifting         CNVShift        .... on
   Level shift para.    LevelShift      ....    0.2500
   Turn off err/grad.   ShiftErr        ....    0.0000
 Zerner damping         CNVZerner       .... off
 Static damping         CNVDamp         .... on
   Fraction old density DampFac         ....    0.8500
   Max. Damping (<1)    DampMax         ....    0.9800
   Min. Damping (>=0)   DampMin         ....    0.0000
   Turn off err/grad.   DampErr         ....    0.0300

SCF Procedure:
 Maximum # iterations   MaxIter         ....   125
 SCF integral mode      SCFMode         .... Direct
   Integral package                     .... SHARK and LIBINT hybrid scheme
 Reset frequency        DirectResetFreq ....    20
 Integral Threshold     Thresh          ....  2.500e-11 Eh
 Primitive CutOff       TCut            ....  2.500e-12 Eh

Convergence Tolerance:
 Convergence Check Mode ConvCheckMode   .... Total+1el-Energy
 Convergence forced     ConvForced      .... 0
 Energy Change          TolE            ....  1.000e-08 Eh
 1-El. energy change                    ....  1.000e-05 Eh
 Orbital Gradient       TolG            ....  1.000e-05
 Orbital Rotation angle TolX            ....  1.000e-05
 DIIS Error             TolErr          ....  5.000e-07

------------------------------
INITIAL GUESS: MODEL POTENTIAL
------------------------------
Loading Hartree-Fock densities                     ... done
Calculating cut-offs                               ... done
Initializing the effective Hamiltonian             ... done
Setting up the integral package (SHARK)            ... done
Starting the Coulomb interaction                   ... done (   0.0 sec)
Making the grid                                    ... done (   0.2 sec)
Mapping shells                                     ... done
Starting the XC term evaluation                    ... done (   0.0 sec)
  promolecular density results
     # of electrons  =     59.999440897
     EX              =    -44.303984087
     EC              =     -1.677356450
     EX+EC           =    -45.981340537
Transforming the Hamiltonian                       ... done (   0.0 sec)
Diagonalizing the Hamiltonian                      ... done (   0.0 sec)
Back transforming the eigenvectors                 ... done (   0.0 sec)
Now organizing SCF variables                       ... done
                      ------------------
                      INITIAL GUESS DONE (   0.2 sec)
                      ------------------
             **** ENERGY FILE WAS UPDATED (hex_prism_nn2.50.en.tmp) ****
Finished Guess after   0.8 sec
Maximum memory used throughout the entire GUESS-calculation: 9.1 MB


           ************************************************************
           *        Program running with 8 parallel MPI-processes     *
           *              working on a common directory               *
           ************************************************************

-------------------------------------------------------------------------------------------
                                      ORCA LEAN-SCF
                              memory conserving SCF solver
-------------------------------------------------------------------------------------------

----------------------------------------D-I-I-S--------------------------------------------
Iteration    Energy (Eh)           Delta-E    RMSDP     MaxDP     DIISErr   Damp  Time(sec)
-------------------------------------------------------------------------------------------
               ***  Starting incremental Fock matrix formation  ***
    1    -295.9806930182053861     0.00e+00  1.02e-03  8.74e-03  1.14e-02  0.850   0.3
Warning: op=0 Small HOMO/LUMO gap (  -0.015) - skipping pre-diagonalization
         Will do a full diagonalization
    2    -295.9834916440845518    -2.80e-03  1.39e-03  9.52e-03  8.38e-03  0.850   0.3
                               ***Turning on AO-DIIS***
    3    -295.9855329321517274    -2.04e-03  9.93e-04  5.82e-03  4.85e-03  0.850   0.2
    4    -295.9858450565090493    -3.12e-04  5.02e-03  3.12e-02  4.63e-03  0.000   0.3
    5    -295.9758695491590288     9.98e-03  8.65e-04  4.49e-03  1.74e-02  0.000   0.3
    6    -295.9811540820492723    -5.28e-03  7.02e-04  3.32e-03  1.36e-02  0.000   0.3
    7    -295.9844349123320626    -3.28e-03  5.83e-04  3.01e-03  1.04e-02  0.000   0.3
    8    -295.9864667598337178    -2.03e-03  5.94e-04  3.01e-03  7.81e-03  0.000   0.2
    9    -295.9876609958494669    -1.19e-03  4.49e-04  2.15e-03  5.83e-03  0.000   0.2
   10    -295.9883471395099832    -6.86e-04  2.86e-04  1.87e-03  4.19e-03  0.000   0.2
   11    -295.9886827276009740    -3.36e-04  2.21e-04  1.39e-03  3.06e-03  0.000   0.2
   12    -295.9888518849724619    -1.69e-04  1.72e-04  1.11e-03  2.31e-03  0.000   0.2
   13    -295.9889442738469825    -9.24e-05  1.40e-04  8.85e-04  1.80e-03  0.000   0.3
   14    -295.9889987395647495    -5.45e-05  1.16e-04  7.52e-04  1.43e-03  0.000   0.2
   15    -295.9890332611782924    -3.45e-05  9.79e-05  6.20e-04  1.15e-03  0.000   0.2
                              *** Initializing SOSCF ***
---------------------------------------S-O-S-C-F--------------------------------------
Iteration    Energy (Eh)           Delta-E    RMSDP     MaxDP     MaxGrad    Time(sec)
--------------------------------------------------------------------------------------
   16    -295.9890559012979452    -2.26e-05  8.55e-05  5.26e-04  9.46e-04     0.2
               *** Restarting incremental Fock matrix formation ***
   17    -295.9890721943944527    -1.63e-05  5.16e-04  3.54e-03  1.16e-03     0.2
   18    -295.9889805261240099     9.17e-05  3.52e-04  2.74e-03  2.45e-03     0.2
   19    -295.9891053110867460    -1.25e-04  1.36e-04  4.67e-04  2.31e-04     0.2
   20    -295.9891134195849531    -8.11e-06  7.91e-04  2.90e-03  2.01e-04     0.2
   21    -295.9890995940278344     1.38e-05  1.94e-04  1.25e-03  1.33e-03     0.2
   22    -295.9891304291629694    -3.08e-05  1.82e-04  8.24e-04  2.86e-04     0.2
   23    -295.9891347560495092    -4.33e-06  1.14e-04  3.22e-04  1.63e-04     0.2
   24    -295.9891380160019594    -3.26e-06  3.94e-04  1.17e-03  1.44e-04     0.3
   25    -295.9891428853686079    -4.87e-06  2.37e-04  7.33e-04  1.13e-04     0.6
   26    -295.9891414121390767     1.47e-06  9.60e-05  4.68e-04  3.26e-04     0.4
   27    -295.9891451176348482    -3.71e-06  5.21e-05  1.75e-04  6.23e-05     0.2
   28    -295.9891460150544162    -8.97e-07  2.24e-04  6.80e-04  5.75e-05     0.2
   29    -295.9891465722178054    -5.57e-07  1.06e-04  4.05e-04  2.50e-04     0.2
   30    -295.9891477763053445    -1.20e-06  4.51e-05  2.84e-04  9.82e-05     0.6
   31    -295.9891480246666333    -2.48e-07  3.47e-05  2.51e-04  7.16e-05     0.6
   32    -295.9891482309768662    -2.06e-07  5.42e-05  1.23e-04  4.31e-05     0.7
   33    -295.9891484557667809    -2.25e-07  5.88e-05  1.33e-04  2.70e-05     1.8
   34    -295.9891485574366925    -1.02e-07  3.86e-05  1.08e-04  3.14e-05     1.3
   35    -295.9891486865101911    -1.29e-07  2.13e-05  7.01e-05  2.04e-05     0.3
   36    -295.9891487263790850    -3.99e-08  1.68e-05  8.32e-05  1.56e-05     0.4
               *** Restarting incremental Fock matrix formation ***
   37    -295.9891487334122075    -7.03e-09  6.91e-06  5.31e-05  1.79e-05     0.3
                 **** Energy Check signals convergence ****

               *****************************************************
               *                     SUCCESS                       *
               *           SCF CONVERGED AFTER  37 CYCLES          *
               *****************************************************

             **** ENERGY FILE WAS UPDATED (hex_prism_nn2.50.en.tmp) ****

----------------
TOTAL SCF ENERGY
----------------

Total Energy       :       -295.98914874153252 Eh           -8054.27421 eV

Components:
Nuclear Repulsion  :        202.66965527574962 Eh            5514.92169 eV
Electronic Energy  :       -498.65880401728214 Eh          -13569.19590 eV
One Electron Energy:       -792.98950367881628 Eh          -21578.34142 eV
Two Electron Energy:        294.33069966153414 Eh            8009.14551 eV

Virial components:
Potential Energy   :       -587.90831078025576 Eh          -15997.79845 eV
Kinetic Energy     :        291.91916203872319 Eh            7943.52424 eV
Virial Ratio       :          2.01394217040904

DFT components:
N(Alpha)           :       29.999932039656 electrons
N(Beta)            :       29.999932039656 electrons
N(Total)           :       59.999864079311 electrons
E(X)               :      -44.467735188622 Eh       
E(C)               :       -1.706517153196 Eh       
E(XC)              :      -46.174252341817 Eh       

---------------
SCF CONVERGENCE
---------------

  Last Energy change         ...    7.0331e-09  Tolerance :   1.0000e-08
  Last MAX-Density change    ...    5.3074e-05  Tolerance :   1.0000e-07
  Last RMS-Density change    ...    6.9056e-06  Tolerance :   5.0000e-09
  Last DIIS Error            ...    9.4573e-04  Tolerance :   5.0000e-07
  Last Orbital Gradient      ...    1.7851e-05  Tolerance :   1.0000e-05
  Last Orbital Rotation      ...    1.1112e-04  Tolerance :   1.0000e-05


----------------
ORBITAL ENERGIES
----------------

  NO   OCC          E(Eh)            E(eV) 
   0   2.0000      -6.666393      -181.4018 
   1   2.0000      -6.666340      -181.4003 
   2   2.0000      -6.666287      -181.3989 
   3   2.0000      -6.666278      -181.3986 
   4   2.0000      -6.666273      -181.3985 
   5   2.0000      -6.666231      -181.3974 
   6   2.0000      -6.666151      -181.3952 
   7   2.0000      -6.666141      -181.3949 
   8   2.0000      -6.663694      -181.3283 
   9   2.0000      -6.663666      -181.3276 
  10   2.0000      -6.663565      -181.3248 
  11   2.0000      -6.663542      -181.3242 
  12   2.0000      -0.424527       -11.5520 
  13   2.0000      -0.412987       -11.2379 
  14   2.0000      -0.411230       -11.1901 
  15   2.0000      -0.384272       -10.4566 
  16   2.0000      -0.383266       -10.4292 
  17   2.0000      -0.365367        -9.9422 
  18   2.0000      -0.346406        -9.4262 
  19   2.0000      -0.335221        -9.1218 
  20   2.0000      -0.333038        -9.0624 
  21   2.0000      -0.306495        -8.3401 
  22   2.0000      -0.305205        -8.3051 
  23   2.0000      -0.287016        -7.8101 
  24   2.0000      -0.216733        -5.8976 
  25   2.0000      -0.200726        -5.4620 
  26   2.0000      -0.196114        -5.3365 
  27   2.0000      -0.192515        -5.2386 
  28   2.0000      -0.191591        -5.2135 
  29   2.0000      -0.190139        -5.1739 
  30   0.0000      -0.193958        -5.2779 
  31   0.0000      -0.183961        -5.0058 
  32   0.0000      -0.182550        -4.9674 
  33   0.0000      -0.171381        -4.6635 
  34   0.0000      -0.170011        -4.6262 
  35   0.0000      -0.163092        -4.4380 
  36   0.0000      -0.161181        -4.3859 
  37   0.0000      -0.143177        -3.8960 
  38   0.0000      -0.141252        -3.8436 
  39   0.0000      -0.139941        -3.8080 
  40   0.0000      -0.132968        -3.6182 
*Only the first 10 virtual orbitals were printed.

                    ********************************
                    * MULLIKEN POPULATION ANALYSIS *
                    ********************************

-----------------------
MULLIKEN ATOMIC CHARGES
-----------------------
   0 B :   -0.019975
   1 B :   -0.019877
   2 B :    0.009983
   3 B :    0.009867
   4 B :    0.010042
   5 B :    0.009983
   6 B :   -0.019997
   7 B :   -0.019901
   8 B :    0.009982
   9 B :    0.009953
  10 B :    0.009964
  11 B :    0.009977
Sum of atomic charges:    0.0000000

--------------------------------
MULLIKEN REDUCED ORBITAL CHARGES
--------------------------------
  0 B s       :     3.869139  s :     3.869139
      pz      :     0.521778  p :     1.146874
      px      :     0.162879
      py      :     0.462216
      dz2     :     0.002754  d :     0.003962
      dxz     :     0.000166
      dyz     :     0.000464
      dx2y2   :     0.000128
      dxy     :     0.000450

  1 B s       :     3.869130  s :     3.869130
      pz      :     0.521740  p :     1.146785
      px      :     0.162865
      py      :     0.462179
      dz2     :     0.002754  d :     0.003962
      dxz     :     0.000166
      dyz     :     0.000464
      dx2y2   :     0.000128
      dxy     :     0.000450

  2 B s       :     3.876161  s :     3.876161
      pz      :     0.579970  p :     1.109539
      px      :     0.251218
      py      :     0.278351
      dz2     :     0.003086  d :     0.004317
      dxz     :     0.000281
      dyz     :     0.000295
      dx2y2   :     0.000337
      dxy     :     0.000318

  3 B s       :     3.876171  s :     3.876171
      pz      :     0.580022  p :     1.109645
      px      :     0.251243
      py      :     0.278380
      dz2     :     0.003086  d :     0.004317
      dxz     :     0.000281
      dyz     :     0.000295
      dx2y2   :     0.000337
      dxy     :     0.000318

  4 B s       :     3.876157  s :     3.876157
      pz      :     0.579942  p :     1.109484
      px      :     0.251203
      py      :     0.278339
      dz2     :     0.003086  d :     0.004317
      dxz     :     0.000281
      dyz     :     0.000295
      dx2y2   :     0.000337
      dxy     :     0.000318

  5 B s       :     3.876162  s :     3.876162
      pz      :     0.579970  p :     1.109539
      px      :     0.251216
      py      :     0.278353
      dz2     :     0.003086  d :     0.004316
      dxz     :     0.000281
      dyz     :     0.000295
      dx2y2   :     0.000337
      dxy     :     0.000318

  6 B s       :     3.869141  s :     3.869141
      pz      :     0.521791  p :     1.146893
      px      :     0.162879
      py      :     0.462224
      dz2     :     0.002754  d :     0.003962
      dxz     :     0.000166
      dyz     :     0.000464
      dx2y2   :     0.000128
      dxy     :     0.000450

  7 B s       :     3.869132  s :     3.869132
      pz      :     0.521754  p :     1.146807
      px      :     0.162865
      py      :     0.462188
      dz2     :     0.002754  d :     0.003962
      dxz     :     0.000166
      dyz     :     0.000464
      dx2y2   :     0.000128
      dxy     :     0.000450

  8 B s       :     3.876161  s :     3.876161
      pz      :     0.579971  p :     1.109541
      px      :     0.251223
      py      :     0.278347
      dz2     :     0.003086  d :     0.004317
      dxz     :     0.000281
      dyz     :     0.000295
      dx2y2   :     0.000337
      dxy     :     0.000318

  9 B s       :     3.876164  s :     3.876164
      pz      :     0.579985  p :     1.109567
      px      :     0.251229
      py      :     0.278353
      dz2     :     0.003086  d :     0.004317
      dxz     :     0.000281
      dyz     :     0.000295
      dx2y2   :     0.000337
      dxy     :     0.000318

 10 B s       :     3.876163  s :     3.876163
      pz      :     0.579981  p :     1.109557
      px      :     0.251223
      py      :     0.278353
      dz2     :     0.003086  d :     0.004317
      dxz     :     0.000281
      dyz     :     0.000295
      dx2y2   :     0.000337
      dxy     :     0.000318

 11 B s       :     3.876162  s :     3.876162
      pz      :     0.579976  p :     1.109544
      px      :     0.251221
      py      :     0.278348
      dz2     :     0.003086  d :     0.004317
      dxz     :     0.000281
      dyz     :     0.000295
      dx2y2   :     0.000337
      dxy     :     0.000318



                     *******************************
                     * LOEWDIN POPULATION ANALYSIS *
                     *******************************

----------------------
LOEWDIN ATOMIC CHARGES
----------------------
   0 B :   -0.015995
   1 B :   -0.015897
   2 B :    0.007993
   3 B :    0.007878
   4 B :    0.008051
   5 B :    0.007993
   6 B :   -0.016016
   7 B :   -0.015921
   8 B :    0.007992
   9 B :    0.007962
  10 B :    0.007974
  11 B :    0.007987

-------------------------------
LOEWDIN REDUCED ORBITAL CHARGES
-------------------------------
  0 B s       :     3.740063  s :     3.740063
      pz      :     0.606002  p :     1.269166
      px      :     0.172777
      py      :     0.490388
      dz2     :     0.005309  d :     0.006766
      dxz     :     0.000185
      dyz     :     0.000487
      dx2y2   :     0.000169
      dxy     :     0.000617

  1 B s       :     3.740048  s :     3.740048
      pz      :     0.605967  p :     1.269083
      px      :     0.172763
      py      :     0.490353
      dz2     :     0.005309  d :     0.006767
      dxz     :     0.000185
      dyz     :     0.000487
      dx2y2   :     0.000169
      dxy     :     0.000617

  2 B s       :     3.749773  s :     3.749773
      pz      :     0.663663  p :     1.234944
      px      :     0.277077
      py      :     0.294205
      dz2     :     0.005799  d :     0.007290
      dxz     :     0.000285
      dyz     :     0.000322
      dx2y2   :     0.000465
      dxy     :     0.000419

  3 B s       :     3.749789  s :     3.749789
      pz      :     0.663711  p :     1.235044
      px      :     0.277100
      py      :     0.294232
      dz2     :     0.005799  d :     0.007290
      dxz     :     0.000285
      dyz     :     0.000322
      dx2y2   :     0.000465
      dxy     :     0.000419

  4 B s       :     3.749769  s :     3.749769
      pz      :     0.663636  p :     1.234890
      px      :     0.277062
      py      :     0.294192
      dz2     :     0.005799  d :     0.007290
      dxz     :     0.000285
      dyz     :     0.000322
      dx2y2   :     0.000465
      dxy     :     0.000419

  5 B s       :     3.749776  s :     3.749776
      pz      :     0.663661  p :     1.234941
      px      :     0.277075
      py      :     0.294206
      dz2     :     0.005799  d :     0.007289
      dxz     :     0.000285
      dyz     :     0.000322
      dx2y2   :     0.000465
      dxy     :     0.000419

  6 B s       :     3.740065  s :     3.740065
      pz      :     0.606014  p :     1.269184
      px      :     0.172776
      py      :     0.490395
      dz2     :     0.005309  d :     0.006766
      dxz     :     0.000185
      dyz     :     0.000487
      dx2y2   :     0.000169
      dxy     :     0.000617

  7 B s       :     3.740051  s :     3.740051
      pz      :     0.605980  p :     1.269103
      px      :     0.172763
      py      :     0.490361
      dz2     :     0.005309  d :     0.006767
      dxz     :     0.000185
      dyz     :     0.000487
      dx2y2   :     0.000169
      dxy     :     0.000617

  8 B s       :     3.749773  s :     3.749773
      pz      :     0.663664  p :     1.234945
      px      :     0.277081
      py      :     0.294200
      dz2     :     0.005799  d :     0.007290
      dxz     :     0.000285
      dyz     :     0.000322
      dx2y2   :     0.000465
      dxy     :     0.000419

  9 B s       :     3.749779  s :     3.749779
      pz      :     0.663677  p :     1.234970
      px      :     0.277087
      py      :     0.294206
      dz2     :     0.005799  d :     0.007290
      dxz     :     0.000285
      dyz     :     0.000322
      dx2y2   :     0.000465
      dxy     :     0.000419

 10 B s       :     3.749776  s :     3.749776
      pz      :     0.663673  p :     1.234960
      px      :     0.277081
      py      :     0.294206
      dz2     :     0.005799  d :     0.007290
      dxz     :     0.000285
      dyz     :     0.000322
      dx2y2   :     0.000465
      dxy     :     0.000419

 11 B s       :     3.749775  s :     3.749775
      pz      :     0.663668  p :     1.234949
      px      :     0.277079
      py      :     0.294201
      dz2     :     0.005799  d :     0.007290
      dxz     :     0.000285
      dyz     :     0.000322
      dx2y2   :     0.000465
      dxy     :     0.000419



                      *****************************
                      * MAYER POPULATION ANALYSIS *
                      *****************************

  NA   - Mulliken gross atomic population
  ZA   - Total nuclear charge
  QA   - Mulliken gross atomic charge
  VA   - Mayer's total valence
  BVA  - Mayer's bonded valence
  FA   - Mayer's free valence

  ATOM       NA         ZA         QA         VA         BVA        FA
  0 B      5.0200     5.0000    -0.0200     1.9901     1.9901    -0.0000
  1 B      5.0199     5.0000    -0.0199     1.9900     1.9900     0.0000
  2 B      4.9900     5.0000     0.0100     1.9226     1.9226     0.0000
  3 B      4.9901     5.0000     0.0099     1.9227     1.9227    -0.0000
  4 B      4.9900     5.0000     0.0100     1.9225     1.9225     0.0000
  5 B      4.9900     5.0000     0.0100     1.9226     1.9226     0.0000
  6 B      5.0200     5.0000    -0.0200     1.9901     1.9901     0.0000
  7 B      5.0199     5.0000    -0.0199     1.9900     1.9900     0.0000
  8 B      4.9900     5.0000     0.0100     1.9226     1.9226     0.0000
  9 B      4.9900     5.0000     0.0100     1.9226     1.9226    -0.0000
 10 B      4.9900     5.0000     0.0100     1.9226     1.9226     0.0000
 11 B      4.9900     5.0000     0.0100     1.9226     1.9226     0.0000

  Mayer bond orders larger than 0.100000
B(  0-B ,  1-B ) :   0.6051 B(  0-B ,  2-B ) :   0.3322 B(  0-B ,  3-B ) :   0.2276 
B(  0-B , 10-B ) :   0.3322 B(  0-B , 11-B ) :   0.2276 B(  1-B ,  2-B ) :   0.2276 
B(  1-B ,  3-B ) :   0.3322 B(  1-B , 10-B ) :   0.2276 B(  1-B , 11-B ) :   0.3322 
B(  2-B ,  3-B ) :   0.5759 B(  2-B ,  4-B ) :   0.2476 B(  2-B ,  5-B ) :   0.1458 
B(  3-B ,  4-B ) :   0.1458 B(  3-B ,  5-B ) :   0.2477 B(  4-B ,  5-B ) :   0.5758 
B(  4-B ,  6-B ) :   0.3322 B(  4-B ,  7-B ) :   0.2276 B(  5-B ,  6-B ) :   0.2276 
B(  5-B ,  7-B ) :   0.3322 B(  6-B ,  7-B ) :   0.6051 B(  6-B ,  8-B ) :   0.3322 
B(  6-B ,  9-B ) :   0.2276 B(  7-B ,  8-B ) :   0.2276 B(  7-B ,  9-B ) :   0.3322 
B(  8-B ,  9-B ) :   0.5758 B(  8-B , 10-B ) :   0.2477 B(  8-B , 11-B ) :   0.1458 
B(  9-B , 10-B ) :   0.1458 B(  9-B , 11-B ) :   0.2477 B( 10-B , 11-B ) :   0.5758 


-------
TIMINGS
-------

Total SCF time: 0 days 0 hours 0 min 14 sec 

Total time                  ....      14.422 sec
Sum of individual times     ....      13.963 sec  ( 96.8%)

SCF preparation             ....       0.570 sec  (  4.0%)
Fock matrix formation       ....       9.613 sec  ( 66.7%)
  Startup                   ....       0.038 sec  (  0.4% of F)
  Split-RI-J                ....       3.054 sec  ( 31.8% of F)
  XC integration            ....       5.584 sec  ( 58.1% of F)
    XC Preparation          ....       0.000 sec  (  0.0% of XC)
    Basis function eval.    ....       1.152 sec  ( 20.6% of XC)
    Density eval.           ....       0.654 sec  ( 11.7% of XC)
    XC-Functional eval.     ....       0.226 sec  (  4.0% of XC)
    XC-Potential eval.      ....       0.569 sec  ( 10.2% of XC)
Diagonalization             ....       0.000 sec  (  0.0%)
Density matrix formation    ....       0.731 sec  (  5.1%)
Total Energy calculation    ....       0.235 sec  (  1.6%)
Population analysis         ....       0.072 sec  (  0.5%)
Orbital Transformation      ....       0.036 sec  (  0.2%)
Orbital Orthonormalization  ....       0.000 sec  (  0.0%)
DIIS solution               ....       0.582 sec  (  4.0%)
SOSCF solution              ....       2.125 sec  ( 14.7%)
Finished LeanSCF after  14.4 sec

Maximum memory used throughout the entire LEANSCF-calculation: 9.2 MB


-------------------------------------------------------------------------------
                          DFT DISPERSION CORRECTION                            
                                                                               
                              DFTD3 V3.1  Rev 1                                
                          USING Becke-Johnson damping                          
-------------------------------------------------------------------------------
The BP86 functional is recognized
Active option DFTDOPT                   ...         4   

molecular C6(AA) [au] = 15251.236325 


            DFT-D V3
 parameters
 s6 scaling factor         :     1.0000 
 a1 scaling factor         :     0.3946 
 s8 scaling factor         :     3.2822 
 a2 scaling factor         :     4.8516 
 ad hoc parameters k1-k3   :    16.0000     1.3333    -4.0000 

 Edisp/kcal,au: -33.270228939665  -0.053019479013 
 E6   /kcal   :  -9.906069545 
 E8   /kcal   : -23.364159395 
 % E8         :  70.225424168 

-------------------------   ----------------
Dispersion correction           -0.053019479
-------------------------   ----------------


-------------------------   --------------------
FINAL SINGLE POINT ENERGY      -296.042168220546
-------------------------   --------------------



           ************************************************************
           *        Program running with 8 parallel MPI-processes     *
           *              working on a common directory               *
           ************************************************************
------------------------------------------------------------------------------
                         ORCA SCF GRADIENT CALCULATION
------------------------------------------------------------------------------

Nuc. rep. gradient        (SHARK) ... done (  0.0 sec)
HCore & Overlap gradient  (SHARK) ... done (  0.0 sec)
Split-RIJ-J gradient      (SHARK) ... done (  0.3 sec)
XC gradient                       ... done (  0.7 sec)
Dispersion correction             ... done (  0.1 sec)

-------------------
DISPERSION GRADIENT
-------------------

   1   B   :    0.001194234   -0.000000000    0.000776082
   2   B   :    0.001194234   -0.000000000   -0.000776082
   3   B   :    0.000597117    0.001034237    0.000776082
   4   B   :    0.000597117    0.001034237   -0.000776082
   5   B   :   -0.000597117    0.001034237    0.000776082
   6   B   :   -0.000597117    0.001034237   -0.000776082
   7   B   :   -0.001194234   -0.000000000    0.000776082
   8   B   :   -0.001194234   -0.000000000   -0.000776082
   9   B   :   -0.000597117   -0.001034237    0.000776082
  10   B   :   -0.000597117   -0.001034237   -0.000776082
  11   B   :    0.000597117   -0.001034237    0.000776082
  12   B   :    0.000597117   -0.001034237   -0.000776082

Difference to translation invariance:
           :   -0.0000000000   -0.0000000000    0.0000000000

Difference to rotation invariance:
           :    0.0000000000   -0.0000000000   -0.0000000000

Norm of the Dispersion gradient    ...    0.0049337600
RMS gradient                       ...    0.0008222933
MAX gradient                       ...    0.0011942344

------------------
CARTESIAN GRADIENT
------------------

   1   B   :    0.020302474   -0.000000032    0.034050216
   2   B   :    0.020302336   -0.000000668   -0.034050394
   3   B   :    0.002519959    0.014691426    0.036516548
   4   B   :    0.002520928    0.014691247   -0.036516322
   5   B   :   -0.002519921    0.014691442    0.036514310
   6   B   :   -0.002521104    0.014691048   -0.036514216
   7   B   :   -0.020302425   -0.000000065    0.034050700
   8   B   :   -0.020302270   -0.000000204   -0.034050871
   9   B   :   -0.002520609   -0.014691303    0.036515612
  10   B   :   -0.002520946   -0.014690885   -0.036515543
  11   B   :    0.002520532   -0.014691290    0.036515452
  12   B   :    0.002521046   -0.014690715   -0.036515493

Difference to translation invariance:
           :   -0.0000000000   -0.0000000000    0.0000000000

Difference to rotation invariance:
           :    0.0000006607    0.0000000167   -0.0000006472

Norm of the Cartesian gradient     ...    0.1368612214
RMS gradient                       ...    0.0228102036
MAX gradient                       ...    0.0365165479

-------
TIMINGS
-------

Total SCF gradient time     ....        1.134 sec

Densities                   ....       0.001 sec  (  0.1%)
One electron gradient       ....       0.038 sec  (  3.4%)
RI-J Coulomb gradient       ....       0.316 sec  ( 27.9%)
XC gradient                 ....       0.716 sec  ( 63.2%)

Maximum memory used throughout the entire SCFGRAD-calculation: 29.1 MB
------------------------------------------------------------------------------
                         ORCA GEOMETRY RELAXATION STEP
------------------------------------------------------------------------------

Reading the OPT-File                    .... done
Getting information on internals        .... done
Copying old internal coords+grads       .... done
Making the new internal coordinates     .... (2022 redundants) done
Validating the new internal coordinates .... (2022 redundants) done
Calculating the B-matrix                .... done
Calculating the G,G- and P matrices     .... done
Transforming gradient to internals      .... done
Projecting the internal gradient        .... done
Number of atoms                         ....  12
Number of internal coordinates          .... 246
Current Energy                          ....  -296.042168221 Eh
Current gradient norm                   ....     0.136861221 Eh/bohr
Maximum allowed component of the step   ....  0.300
Current trust radius                    ....  0.300
Evaluating the initial hessian          ....  (Almloef) done
Projecting the Hessian                  .... done
Forming the augmented Hessian           .... done
Diagonalizing the augmented Hessian     .... done
Last element of RFO vector              ....  0.738464667
Lowest eigenvalues of augmented Hessian:
 -0.080603141  0.010887821  0.010900180  0.010957102  0.012770200
Length of the computed step             ....  0.913100118
Warning: the length of the step is outside the trust region - taking restricted step instead
The input lambda is                     ....     0.009419
   iter:   5  x=    0.002441  g=61497.114606 f(x)=   169.524143
   iter:  10  x=   -0.057541  g=  132.573047 f(x)=     3.090305
   iter:  15  x=   -0.272818  g=    0.870727 f(x)=     0.024082
   iter:  20  x=   -0.278151  g=    0.609834 f(x)=     0.000000
The output lambda is                    ....    -0.278151 (20 iterations)
The final length of the internal step   ....  0.300000000
Converting the step to Cartesian space:
 Initial RMS(Int)=    0.0191273014
Transforming coordinates:
 Iter   0:  RMS(Cart)=    0.0383996110 RMS(Int)=    0.8009542650
done
Storing new coordinates                 .... done

                                .--------------------.
          ----------------------|Geometry convergence|-------------------------
          Item                value                   Tolerance       Converged
          ---------------------------------------------------------------------
          RMS gradient        0.0056568717            0.0001000000      NO
          MAX gradient        0.0263802738            0.0003000000      NO
          RMS step            0.0191273014            0.0020000000      NO
          MAX step            0.0884672053            0.0040000000      NO
          -------------------------------------------------------------------------
          ........................................................
          Max(Bonds)      0.0468      Max(Angles)    0.77
          Max(Dihed)        1.00      Max(Improp)    0.00
          ---------------------------------------------------------------------

The optimization has not yet converged - more geometry cycles are needed


    ---------------------------------------------------------------------------
                         Redundant Internal Coordinates
                            (Angstroem and degrees)

[...]
      dxz     :     0.010058
      dyz     :     0.012104
      dx2y2   :     0.009404
      dxy     :     0.010243

  8 B s       :     2.701147  s :     2.701147
      pz      :     0.664521  p :     1.996527
      px      :     0.683362
      py      :     0.648644
      dz2     :     0.014181  d :     0.055904
      dxz     :     0.009429
      dyz     :     0.009954
      dx2y2   :     0.012115
      dxy     :     0.010224

  9 B s       :     2.702473  s :     2.702473
      pz      :     0.642744  p :     1.996971
      px      :     0.811467
      py      :     0.542761
      dz2     :     0.014639  d :     0.055886
      dxz     :     0.009854
      dyz     :     0.010564
      dx2y2   :     0.011136
      dxy     :     0.009693

 10 B s       :     2.970983  s :     2.970983
      pz      :     0.664022  p :     2.134611
      px      :     0.899570
      py      :     0.571019
      dz2     :     0.014007  d :     0.055509
      dxz     :     0.012468
      dyz     :     0.009161
      dx2y2   :     0.007775
      dxy     :     0.012098

 11 B s       :     3.031231  s :     3.031231
      pz      :     0.681820  p :     1.991205
      px      :     0.724646
      py      :     0.584740
      dz2     :     0.013615  d :     0.054327
      dxz     :     0.010164
      dyz     :     0.008268
      dx2y2   :     0.013484
      dxy     :     0.008796



                     *******************************
                     * LOEWDIN POPULATION ANALYSIS *
                     *******************************

----------------------
LOEWDIN ATOMIC CHARGES
----------------------
   0 B :   -0.002780
   1 B :   -0.077027
   2 B :    0.009402
   3 B :    0.011122
   4 B :   -0.075483
   5 B :   -0.003150
   6 B :    0.054341
   7 B :    0.069932
   8 B :   -0.055480
   9 B :   -0.055737
  10 B :    0.069653
  11 B :    0.055206

-------------------------------
LOEWDIN REDUCED ORBITAL CHARGES
-------------------------------
  0 B s       :     2.701937  s :     2.701937
      pz      :     0.695515  p :     2.165378
      px      :     0.739505
      py      :     0.730358
      dz2     :     0.035492  d :     0.135465
      dxz     :     0.022568
      dyz     :     0.037041
      dx2y2   :     0.013590
      dxy     :     0.026774

  1 B s       :     2.748988  s :     2.748988
      pz      :     0.730687  p :     2.211461
      px      :     0.535950
      py      :     0.944823
      dz2     :     0.032336  d :     0.116578
      dxz     :     0.020449
      dyz     :     0.026897
      dx2y2   :     0.013324
      dxy     :     0.023571

  2 B s       :     2.760140  s :     2.760140
      pz      :     0.797220  p :     2.132281
      px      :     0.887328
      py      :     0.447732
      dz2     :     0.013418  d :     0.098177
      dxz     :     0.029923
      dyz     :     0.005704
      dx2y2   :     0.021168
      dxy     :     0.027964

  3 B s       :     2.760779  s :     2.760779
      pz      :     0.781683  p :     2.130031
      px      :     0.641411
      py      :     0.706938
      dz2     :     0.013545  d :     0.098068
      dxz     :     0.011390
      dyz     :     0.023574
      dx2y2   :     0.025755
      dxy     :     0.023805

  4 B s       :     2.749705  s :     2.749705
      pz      :     0.724794  p :     2.209309
      px      :     0.793770
      py      :     0.690745
      dz2     :     0.032752  d :     0.116470
      dxz     :     0.025839
      dyz     :     0.023336
      dx2y2   :     0.021965
      dxy     :     0.012577

  5 B s       :     2.701654  s :     2.701654
      pz      :     0.717565  p :     2.166031
      px      :     0.648866
      py      :     0.799600
      dz2     :     0.033821  d :     0.135466
      dxz     :     0.029161
      dyz     :     0.033334
      dx2y2   :     0.025756
      dxy     :     0.013393

  6 B s       :     2.709192  s :     2.709192
      pz      :     0.774479  p :     2.097388
      px      :     0.427669
      py      :     0.895240
      dz2     :     0.038191  d :     0.139079
      dxz     :     0.013672
      dyz     :     0.029144
      dx2y2   :     0.025539
      dxy     :     0.032533

  7 B s       :     2.704141  s :     2.704141
      pz      :     0.698186  p :     2.085411
      px      :     0.510379
      py      :     0.876846
      dz2     :     0.036886  d :     0.140516
      dxz     :     0.017699
      dyz     :     0.030880
      dx2y2   :     0.026992
      dxy     :     0.028059

  8 B s       :     2.677752  s :     2.677752
      pz      :     0.749103  p :     2.237285
      px      :     0.759124
      py      :     0.729058
      dz2     :     0.039956  d :     0.140443
      dxz     :     0.023262
      dyz     :     0.023132
      dx2y2   :     0.032263
      dxy     :     0.021831

  9 B s       :     2.677901  s :     2.677901
      pz      :     0.735565  p :     2.237478
      px      :     0.847737
      py      :     0.654176
      dz2     :     0.041507  d :     0.140359
      dxz     :     0.025866
      dyz     :     0.021215
      dx2y2   :     0.026203
      dxy     :     0.025568

 10 B s       :     2.704123  s :     2.704123
      pz      :     0.720054  p :     2.085820
      px      :     0.864397
      py      :     0.501370
      dz2     :     0.038217  d :     0.140404
      dxz     :     0.030992
      dyz     :     0.016105
      dx2y2   :     0.024954
      dxy     :     0.030135

 11 B s       :     2.709554  s :     2.709554
      pz      :     0.771206  p :     2.096194
      px      :     0.753281
      py      :     0.571706
      dz2     :     0.038606  d :     0.139047
      dxz     :     0.024728
      dyz     :     0.018476
      dx2y2   :     0.032932
      dxy     :     0.024304



                      *****************************
                      * MAYER POPULATION ANALYSIS *
                      *****************************

  NA   - Mulliken gross atomic population
  ZA   - Total nuclear charge
  QA   - Mulliken gross atomic charge
  VA   - Mayer's total valence
  BVA  - Mayer's bonded valence
  FA   - Mayer's free valence

  ATOM       NA         ZA         QA         VA         BVA        FA
  0 B      4.8157     5.0000     0.1843     3.4588     3.4588    -0.0000
  1 B      5.2441     5.0000    -0.2441     3.6744     3.6744    -0.0000
  2 B      4.9466     5.0000     0.0534     3.5371     3.5371     0.0000
  3 B      4.9476     5.0000     0.0524     3.5351     3.5351     0.0000
  4 B      5.2460     5.0000    -0.2460     3.6745     3.6745    -0.0000
  5 B      4.8152     5.0000     0.1848     3.4588     3.4588     0.0000
  6 B      5.0769     5.0000    -0.0769     3.8463     3.8463    -0.0000
  7 B      5.1611     5.0000    -0.1611     4.0803     4.0803    -0.0000
  8 B      4.7536     5.0000     0.2464     3.6065     3.6065    -0.0000
  9 B      4.7553     5.0000     0.2447     3.6059     3.6059    -0.0000
 10 B      5.1611     5.0000    -0.1611     4.0801     4.0801    -0.0000
 11 B      5.0768     5.0000    -0.0768     3.8438     3.8438    -0.0000

  Mayer bond orders larger than 0.100000
B(  0-B ,  1-B ) :   0.7276 B(  0-B ,  2-B ) :   0.1417 B(  0-B ,  3-B ) :   0.6199 
B(  0-B , 10-B ) :   1.1778 B(  0-B , 11-B ) :   0.5116 B(  1-B ,  3-B ) :   1.3452 
B(  1-B , 10-B ) :   0.2033 B(  1-B , 11-B ) :   1.2058 B(  2-B ,  3-B ) :   0.9367 
B(  2-B ,  4-B ) :   1.3447 B(  2-B ,  5-B ) :   0.6223 B(  2-B ,  6-B ) :   0.2352 
B(  2-B ,  7-B ) :   0.1182 B(  2-B , 10-B ) :   0.1086 B(  3-B ,  5-B ) :   0.1412 
B(  3-B ,  7-B ) :   0.1081 B(  3-B , 10-B ) :   0.1170 B(  3-B , 11-B ) :   0.2368 
B(  4-B ,  5-B ) :   0.7240 B(  4-B ,  6-B ) :   1.2080 B(  4-B ,  7-B ) :   0.2039 
B(  5-B ,  6-B ) :   0.5134 B(  5-B ,  7-B ) :   1.1774 B(  6-B ,  7-B ) :   0.5167 
B(  6-B ,  8-B ) :   0.9425 B(  6-B , 10-B ) :   0.3018 B(  7-B ,  8-B ) :   0.5973 
B(  7-B ,  9-B ) :   0.8096 B(  7-B , 10-B ) :   0.2037 B(  7-B , 11-B ) :   0.3019 
B(  8-B ,  9-B ) :   0.9178 B(  8-B , 10-B ) :   0.8104 B(  9-B , 10-B ) :   0.5981 
B(  9-B , 11-B ) :   0.9429 B( 10-B , 11-B ) :   0.5160 

-------
TIMINGS
-------

Total SCF time: 0 days 0 hours 0 min 3 sec 

Total time                  ....       3.979 sec
Sum of individual times     ....       3.601 sec  ( 90.5%)

SCF preparation             ....       0.504 sec  ( 12.7%)
Fock matrix formation       ....       2.613 sec  ( 65.7%)
  Startup                   ....       0.007 sec  (  0.3% of F)
  Split-RI-J                ....       0.885 sec  ( 33.9% of F)
  XC integration            ....       1.886 sec  ( 72.2% of F)
    XC Preparation          ....       0.000 sec  (  0.0% of XC)
    Basis function eval.    ....       0.428 sec  ( 22.7% of XC)
    Density eval.           ....       0.296 sec  ( 15.7% of XC)
    XC-Functional eval.     ....       0.053 sec  (  2.8% of XC)
    XC-Potential eval.      ....       0.358 sec  ( 19.0% of XC)
Diagonalization             ....       0.000 sec  (  0.0%)
Density matrix formation    ....       0.037 sec  (  0.9%)
Total Energy calculation    ....       0.029 sec  (  0.7%)
Population analysis         ....       0.226 sec  (  5.7%)
Orbital Transformation      ....       0.020 sec  (  0.5%)
Orbital Orthonormalization  ....       0.000 sec  (  0.0%)
DIIS solution               ....       0.015 sec  (  0.4%)
SOSCF solution              ....       0.157 sec  (  3.9%)
Finished LeanSCF after   4.2 sec

Maximum memory used throughout the entire LEANSCF-calculation: 13.0 MB


-------------------------------------------------------------------------------
                          DFT DISPERSION CORRECTION                            
                                                                               
                              DFTD3 V3.1  Rev 1                                
                          USING Becke-Johnson damping                          
-------------------------------------------------------------------------------
The BP86 functional is recognized
Active option DFTDOPT                   ...         4   

molecular C6(AA) [au] = 4237.580013 


            DFT-D V3
 parameters
 s6 scaling factor         :     1.0000 
 a1 scaling factor         :     0.3946 
 s8 scaling factor         :     3.2822 
 a2 scaling factor         :     4.8516 
 ad hoc parameters k1-k3   :    16.0000     1.3333    -4.0000 

 Edisp/kcal,au: -22.023027024988  -0.035095923785 
 E6   /kcal   :  -6.277397925 
 E8   /kcal   : -15.745629100 
 % E8         :  71.496207500 

-------------------------   ----------------
Dispersion correction           -0.035095924
-------------------------   ----------------


-------------------------   --------------------
FINAL SINGLE POINT ENERGY      -297.665870886848
-------------------------   --------------------

                                *** OPTIMIZATION RUN DONE ***



           ************************************************************
           *        Program running with 8 parallel MPI-processes     *
           *              working on a common directory               *
           ************************************************************

------------------------------------------------------------------------------
                              ORCA PROPERTY CALCULATIONS
------------------------------------------------------------------------------

GBWName                                 ... hex_prism_nn2.50.gbw
Number of atoms                         ...     12
Number of basis functions               ...    168
Max core memory                         ...   2500 MB

Electric properties:
Dipole moment                           ... YES
Quadrupole moment                       ...  NO
Static polarizability (Dipole/Dipole)   ...  NO
Static polarizability (Dipole/Quad.)    ...  NO
Static polarizability (Quad./Quad.)     ...  NO
Static polarizability (Velocity)        ...  NO
Static hyperpolarizability              ...  NO

Atomic electric properties:
Dipole moment                           ...  NO
Quadrupole moment                       ...  NO
Static polarizability                   ...  NO

Choice of electric origin               ... Center of mass
Position of electric origin             ...    -0.000000     0.000000     0.000000

General magnetic properties:
Magnetizability                         ...  NO

EPR properties:
g-Tensor (aka g-matrix)                 ...  NO
Zero-Field splitting spin-orbit         ...  NO
Zero-field splitting spin-spin          ...  NO
Hyperfine couplings                     ...  NO (   0 nuclei)
Quadrupole couplings                    ...  NO (   0 nuclei)
Contact density                         ...  NO (   0 nuclei)

NMR properties:
Chemical shifts                         ...  NO (   0 nuclei)
Spin-rotation constants                 ...  NO (   0 nuclei)
Spin-spin couplings                     ...  NO (   0 nuclei,    0 pairs)

Choice of magnetic origin               ... GIAO
Position of magnetic origin             ...     0.000000     0.000000     0.000000

Properties with geometric perturbations:
SCF Hessian                             ...  NO
IR spectrum                             ...  NO
VCD spectrum                            ...  NO
X-ray spectroscopy properties:
SCF XES/XAS/RIXS spectra                ...  NO

SCF SOC stabilization energy            ...  NO
Diagonal Born-Oppenheimer correction    ...  NO

-------------
DIPOLE MOMENT
-------------

Method             : SCF
Type of density    : Electron Density
Multiplicity       :   1
Irrep              :   0
Energy             :  -297.6307749630637431 Eh
Basis              : AO
                                X                 Y                 Z
Electronic contribution:     -0.305986282      -0.549489747      -0.028734866
Nuclear contribution   :     -0.000000000       0.000000000       0.000000000
                        -----------------------------------------
Total Dipole Moment    :     -0.305986282      -0.549489747      -0.028734866
                        -----------------------------------------
Magnitude (a.u.)       :      0.629596919
Magnitude (Debye)      :      1.600308189



--------------------
Rotational spectrum 
--------------------
 
Rotational constants in cm-1:             0.071040             0.054578             0.038590 
Rotational constants in MHz :          2129.734306          1636.204123          1156.901199 

Dipole components along the rotational axes: 
x,y,z [a.u.] :     0.002903    -0.629590     0.000224 
x,y,z [Debye]:     0.007379    -1.600291     0.000568 

 

Dipole moment calculation done in   0.1 sec 

Maximum memory used throughout the entire PROP-calculation: 10.4 MB

--------------------------------
SUGGESTED CITATIONS FOR THIS RUN
--------------------------------

Below you find a list of papers that are relevant to this ORCA run
We neither can nor want to force you to cite these papers, but we appreciate if you do
You receive ORCA, which is the product of decades of hard work by many enthusiastic individuals, for free
The only thing we kindly ask in return is that you cite our papers,
We deeply appreciate it, if you show your appreciation for ORCA by not just citing the generic ORCA reference.

Please note that relegating all ORCA citations to the supporting information does *not* help us.
SI sections are not indexed - citations you put there will not count into any citation statistics
But we need these citations in order to attract the funding resources that allow us to do what we are doing

Therefore, if you are a happy ORCA user, please consider citing a few of the papers listed below in the main body of your paper

In addition to the list printed below, the program has created the file hex_prism_nn2.50.bibtex that contains the list in bibtex format
You can import this file easily into all common literature databanks and citation aid programs

It goes without saying that in many instances, there are alternative algorithms to achieve similar
results as the ones you have gotten from ORCA. It is, of course, also the case that in some instances
ORCA just re-implements algorithms worked out by others. We are fully aware of that and we are also
fully appreciative of our colleagues work. Hence this citation list should not be read as indicating
that the listed papers, which are focused on our own work, are the only ones worth citing. It simply
meant to make it easier for users to cite ORCA specific papers. It is not a substitute for doing your
own literature research and citing the relevant literature in a scientifically appropriate manner.

List of essential papers. We consider these as the minimum necessary citations

  1. Neese, F.
     Software update: the ORCA program system, version 6.0
     WIRES Comput. Molec. Sci. 2025 15(1), e70019
     doi.org/10.1002/wcms.70019

List of papers to cite with high priority. The work reported in these papers was absolutely
necessary for this run to complete.
Our perspective: the developers of density functionals and basis sets usually get cited in chemistry papers
Good! But without the algorithms to do something with them, the functionals or basis sets would not do anything.
Hence, in our opinion, the algorithm design and method developments papers are equally worthy of getting cited

  1. Neese, F.
     An improvement of the resolution of the identity approximation for the formation of the Coulomb matrix
     J. Comp. Chem. 2003 24(14), 1740-1747
     doi.org/10.1002/jcc.10318
  2. Grimme, S.; Antony, J.; Ehrlich, S.; Krieg, H.
     A consistent and accurate ab initio parametrization of density functional dispersion correction (DFT-D) for the 94 elements H-Pu
     J. Chem. Phys. 2010 132 , 154104
     doi.org/10.1063/1.3382344
  3. Grimme, S.; Ehrlich, S.; Goerigk, L.
     Effect of the damping function in dispersion corrected density functional theory
     J. Comput. Chem. 2011 32(7), 1456-1465
     doi.org/10.1002/jcc.21759
  4. Helmich-Paris, B.
     A trust-region augmented Hessian implementation for restricted and unrestricted Hartree–Fock and Kohn–Sham methods
     J. Chem. Phys. 2021 154 , 164104
     doi.org/10.1063/5.0040798
  5. Neese, F.
     The SHARK Integral Generation and Digestion System
     J. Comp. Chem. 2022 44(3), 381
     doi.org/10.1002/jcc.26942

List of suggested additional citations. These are papers that are important in the 'surrounding' of 
of this run, or papers that preceded the highly important papers. If you like your results we are grateful for a citation.

  1. Neese, F.
     The ORCA program system
     WIRES Comput. Molec. Sci. 2012 2(1), 73-78
     doi.org/10.1002/wcms.81
  2. Neese, F.
     Software update: the ORCA program system, version 4.0
     WIRES Comput. Molec. Sci. 2018 8(1), 1-6
     doi.org/10.1002/wcms.1327
  3. Neese, F.; Wennmohs, F.; Becker, U.; Riplinger, C.
     The ORCA quantum chemistry program package
     J. Chem. Phys. 2020 152(22), 224108
     doi.org/10.1063/5.0004608
  4. Neese, F.
     Software update: The ORCA program system—Version 5.0
     WIRES Comput. Molec. Sci. 2022 12(1), e1606
     doi.org/10.1002/wcms.1606

List of optional additional citations

  1. Neese, F.
     Approximate second-order SCF convergence for spin unrestricted wavefunctions
     Chem. Phys. Lett. 2000 325(1-3), 93-98
     doi.org/10.1016/s0009-2614(00)00662-x

Timings for individual modules:

Sum of individual times          ...      938.340 sec (=  15.639 min)
Startup calculation              ...      112.225 sec (=   1.870 min)  12.0 %
SCF iterations                   ...      672.603 sec (=  11.210 min)  71.7 %
Property calculations            ...        0.778 sec (=   0.013 min)   0.1 %
SCF Gradient evaluation          ...      151.287 sec (=   2.521 min)  16.1 %
Geometry relaxation              ...        1.448 sec (=   0.024 min)   0.2 %
                             ****ORCA TERMINATED NORMALLY****
TOTAL RUN TIME: 0 days 0 hours 16 minutes 30 seconds 2 msec
