
                                 *****************
                                 * O   R   C   A *
                                 *****************

                                            #,                                       
                                            ###                                      
                                            ####                                     
                                            #####                                    
                                            ######                                   
                                           ########,                                 
                                     ,,################,,,,,                         
                               ,,#################################,,                 
                          ,,##########################################,,             
                       ,#########################################, ''#####,          
                    ,#############################################,,   '####,        
                  ,##################################################,,,,####,       
                ,###########''''           ''''###############################       
              ,#####''   ,,,,##########,,,,          '''####'''          '####       
            ,##' ,,,,###########################,,,                        '##       
           ' ,,###''''                  '''############,,,                           
         ,,##''                                '''############,,,,        ,,,,,,###''
      ,#''                                            '''#######################'''  
     '                                                          ''''####''''         
             ,#######,   #######,   ,#######,      ##                                
            ,#'     '#,  ##    ##  ,#'     '#,    #''#        ,####,    ,#,          
            ##       ##  ##   ,#'  ##            #'  '#       #'       ,# #          
            ##       ##  #######   ##           ,######,      #####,      #          
            '#,     ,#'  ##    ##  '#,     ,#' ,#      #,     #,   #      #          
             '#######'   ##     ##  '#######'  #'      '#     '####' #    #          



                #########################################################
                #                        -***-                          #
                #          Department of theory and spectroscopy        #
                #                                                       #
                #                      Frank Neese                      #
                #                                                       #
                #     Directorship, Architecture, Infrastructure        #
                #                    SHARK, DRIVERS                     #
                #        Core code/Algorithms in most modules           #
                #                                                       #
                #        Max Planck Institute fuer Kohlenforschung      #
                #                Kaiser Wilhelm Platz 1                 #
                #                 D-45470 Muelheim/Ruhr                 #
                #                      Germany                          #
                #                                                       #
                #                  All rights reserved                  #
                #                        -***-                          #
                #########################################################


                         Program Version 6.1.1  -  RELEASE   -
                                (GIT: $487d211c$)
                          ($2025-11-21 10:33:24 +0100$)
                                                                         
                                  - NO-DMRG VERSION -                    
                                                                         


 With contributions from (in alphabetic order):
[Max-Planck-Institut fuer Kohlenforschung]                               
  Daniel Aravena         : Magnetic Suceptibility                        
  Michael Atanasov       : Ab Initio Ligand Field Theory (pilot matlab implementation)
  Alexander A. Auer      : GIAO ZORA, VPT2 properties, NMR spectrum      
  Ute Becker             : All parallelization in ORCA, NUMFREQ, NUMCALC 
  Giovanni Bistoni       : ED, misc. LED, open-shell LED, HFLD           
  Dmytro Bykov           : pre 5.0 version of the SCF Hessian            
  Marcos Casanova-Páez   : Triplet and SCS-CIS(D). UHF-(DLPNO)-IP/EA/STEOM-CCSD. UHF-CVS-IP/STEOM-CCSD   
  Vijay G. Chilkuri      : MRCI spin determinant printing, contributions to CSF-ICE 
  Pauline Colinet        : FMM embedding                                 
  Dipayan Datta          : RHF DLPNO-CCSD density                        
  Achintya Kumar Dutta   : EOM-CC, STEOM-CC                              
  Nicolas Foglia         : Exact transition moments, OPA infrastructure, MCD improvements    
  Dmitry Ganyushin       : Spin-Orbit,Spin-Spin,Magnetic field MRCI      
  Miquel Garcia-Rates    : C-PCM and meta-GGA Hessian, CCSD/C-PCM, Gaussian charge scheme 
  Tiago L. C. Gouveia    : GS-ROHF, GS-ROCIS                             
  Yang Guo               : DLPNO-NEVPT2, F12-NEVPT2, CIM, IAO-localization        
  Andreas Hansen         : Spin unrestricted coupled pair/coupled cluster methods 
  Ingolf Harden          : AUTO-CI MPn and infrastructure                
  Benjamin Helmich-Paris : MC-RPA, TRAH-(SCF,CASSCF), AVAS, COSX integrals, SCF dyn. polar., MC-PDFT, srDFT 
  Lee Huntington         : MR-EOM, pCC                                   
  Robert Izsak           : Overlap fitted RIJCOSX, COSX-SCS-MP3, EOM     
  Riya Kayal             : Wick's Theorem for AUTO-CI, AUTO-CI UHF-CCSDT 
  Emily Kempfer          : AUTO-CI RHF CISDT and CCSDT, approximate NEVPT4
  Christian Kollmar      : KDIIS, OOCD, Brueckner-CCSD(T), CCSD density, CASPT2, CASPT2-K, improved NEVPT2 
  Axel Koslowski         : Symmetry handling                             
  Simone Kossmann        : meta-GGA functionals, TD-DFT gradient, OOMP2, (MP2 Hessian; deprecated post 5.0) 
  Lucas Lang             : DCDCAS, Hyperfine gauge corrections, ICE-SOC+SSC
  Marvin Lechner         : AUTO-CI (C++ implementation), FIC-MRCC        
  Spencer Leger          : CASSCF response                               
  Dagmar Lenk            : GEPOL surface, SMD, ORCA-2-JSON               
  Dimitrios Liakos       : Extrapolation schemes; Compound Job, Property file
  Dimitrios Manganas     : Further ROCIS development; embedding schemes. LFT, Crystal Embedding 
  Dimitrios Pantazis     : SARC Basis sets                               
  Anastasios Papadopoulos: AUTO-CI, single reference methods and gradients 
  Taras Petrenko         : pre 6.0 DFT Hessian and TD-DFT gradient,  ECA, NRVS 
  Petra Pikulova         : Analytic Raman intensities                    
  Peter Pinski           : DLPNO-MP2, DLPNO-MP2 Gradient                 
  Shashank Vittal Rao    : ES-AILFT, MagRelax                            
  Christoph Reimann      : Effective Core Potentials                     
  Marius Retegan         : Local ZFS, SOC                                
  Christoph Riplinger    : Optimizer, TS searches, QM/MM, DLPNO-CCSD(T), (RO)-DLPNO pert. Triples 
  Michael Roemelt        : Original ROCIS implementation, recursive CI coupling coefficients
  Masaaki Saitow         : Open-shell DLPNO-CCSD energy and density      
  Barbara Sandhoefer     : DKH picture change effects                    
  Yorick L. A. Schmerwitz: GMF and freeze-and-release deltaSCF, NEB S-IDPP initial path                    
  Kantharuban Sivalingam : CASSCF convergence/infrastructure, NEVPT2, NEVPT3, NEVPT4(SD), FIC-MRCI and CEPA variants
  Bernardo de Souza      : ESD, SOC TD-DFT                               
  Georgi L. Stoychev     : AutoAux, RI-MP2 NMR, DLPNO-MP2 response, X2C  
  Van Anh Tran           : RI-MP2 g-tensors                              
  Willem Van den Heuvel  : Paramagnetic NMR                              
  Zikuan Wang            : NOTCH, Electric field optimization            
  Frank Wennmohs         : Technical directorship and infrastructure     
  Hang Xu                : AUTO-CI-Response properties                   
                                                                         
[FACCTs GmbH]                                                            
  Markus Bursch, Nicolas Foglia, Miquel Garcia-Rates, Ingolf Harden, Hagen Neugebauer, Anastasios Papadopoulos, 
  Christoph Riplinger, Bernardo de Souza, Georgi L. Stoychev                                                    
                                                                 
  APM, various basis sets, CI-OPT, improved COSX, DLPNO-Multilevel,           
  DOCKER, DRACO, updates on ESD, Fragmentator, GOAT, IRC, LR-CPCM, L-BFGS, MBIS, meta-GGA TD-DFT gradient, ML-optimized integration grids, 
  MM, NACMEs, nearIR, NEB, NEB-TS, NL-DFT gradient (VV10), 2- and 3-layer-ONIOM, interface openCOSMO-RS, QMMM,   
  Crystal-QMMM, RESP, rigid body optimization, SF, symmetry and pop. for TD-DFT, various functionals, SOLVATOR                                   
                                                                         
[Other institutions]                                                     
  V. Asgeirsson          : NEB                                           
  Christoph Bannwarth    : sTDA-DFT, sTD-DFT, PBEh-3c, B97-3c, D3        
  Giovanni Bistoni       : ETS/NOCV, ADLD/ADEX, COVALED                  
  Martin Brehm           : Molecular dynamics                            
  Ronald Cardenas        : ETS/NOCV                                      
  Martina Colucci        : COVALED                                       
  Sebastian Ehlert       : rSCAN, r2SCAN, r2SCAN-3c, D4, dhf basis sets  
  Marvin Friede          : D4 for Fr, Ra, Ac-Lr                          
  Lars Goerigk           : TD-DFT with DH, B97 family of functionals     
  Stefan Grimme          : VdW corrections, initial TS optimization, DFT functionals, gCP, sTDA/sTD-DF 
  Waldemar Hujo          : DFT-NL                                        
  H. Jonsson             : NEB                                           
  Holger Kruse           : gCP                                           
  Marcel Mueller         : wB97X-3c, vDZP basis set                      
  Hagen Neugebauer       : wr2SCAN, Native XTB                           
  Gianluca Regni         : ADLD/ADEX                                     
  Tobias Risthaus        : pre 6.0 range-separated hybrid DFT and stability analysis
  Lukas Wittmann         : regularized MP2, r2SCAN double-hybrids, wr2SCAN        
                                                                         
We gratefully acknowledge several colleagues who have allowed us to      
interface, adapt or use parts of their codes:                            
  Ed Valeev, F. Pavosevic, A. Kumar             : LibInt (2-el integral package), F12 methods 
  Garnet Chan, S. Sharma, J. Yang, R. Olivares  : DMRG                   
  Ulf Ekstrom                                   : XCFun DFT Library      
  Mihaly Kallay                                 : mrcc  (arbitrary order and MRCC methods)
  Frank Weinhold                                : gennbo (NPA and NBO analysis)           
  Simon Mueller                                 : openCOSMO-RS                            
  Christopher J. Cramer and Donald G. Truhlar   : smd solvation model                     
  S Lehtola, MJT Oliveira, MAL Marques          : LibXC Library                           
  Liviu Ungur et al                             : ANISO software                          


 Your calculation uses the libint2 library for the computation of 2-el integrals
 For citations please refer to: http://libint.valeyev.net

 Your ORCA version has been built with support for libXC version: 7.0.0
 For citations please refer to: https://libxc.gitlab.io

 This ORCA versions uses:
   CBLAS   interface :  Fast vector & matrix operations
   LAPACKE interface :  Fast linear algebra routines
   SCALAPACK package :  Parallel linear algebra routines
   Shared memory     :  Shared parallel matrices
   BLAS/LAPACK       :  OpenBLAS 0.3.29  USE64BITINT DYNAMIC_ARCH NO_AFFINITY Zen SINGLE_THREADED
        Core in use  :  Zen
   Copyright (c) 2011-2014, The OpenBLAS Project


  ***********************************
  * Starting time: Fri Apr 24 07:27:01 2026
  * Host name:     vmi3233575
  * Process ID:    1801630
  * Working dir.:  /root/b12_scan/jobs/trunc_tetrahedron_nn5.00
  ***********************************

NOTE: MaxCore=2500 MB was set to SCF,MP2,MDCI,CIPSI,MRCI,RASCI and CIS
      => If you want to overwrite this, your respective input block should be placed after the MaxCore statement
Your calculation utilizes the atom-pairwise dispersion correction
with the Becke-Johnson damping scheme (D3BJ)


================================================================================

----- Orbital basis set information -----
Your calculation utilizes the basis: def2-SVP
   F. Weigend and R. Ahlrichs, Phys. Chem. Chem. Phys. 7, 3297 (2005).

----- AuxJ basis set information -----
Your calculation utilizes the auxiliary basis: def2/J
   H-Rn: F. Weigend, Phys. Chem. Chem. Phys. 8, 1057 (2006).
   Fr-Lr: K. Eichkorn, F. Weigend, O. Treutler, R. Ahlrichs; Theor. Chem. Acc. 97, 119 (1997).

================================================================================
                                        WARNINGS
                       Please study these warnings very carefully!
================================================================================


WARNING: Geometry Optimization
  ===> : Switching off AutoStart
         For restart on a previous wavefunction, please use MOREAD

================================================================================
                                       INPUT FILE
================================================================================
NAME = trunc_tetrahedron_nn5.00.inp
|  1> ! BP86 def2-SVP def2/J RI Opt TightSCF D3BJ
|  2> ! SlowConv
|  3> 
|  4> %pal nprocs 8 end
|  5> %maxcore 2500
|  6> 
|  7> %geom
|  8>   MaxIter 300
|  9> end
| 10> 
| 11> * xyz 0 1
| 12> B     -5.89255651     -1.17851130      0.00000000
| 13> B     -5.89255651      2.35702260     -3.53553391
| 14> B     -5.89255651      2.35702260      3.53553391
| 15> B     -5.89255651      5.89255651      0.00000000
| 16> B      1.17851130     -8.24957911      0.00000000
| 17> B      1.17851130      2.35702260    -10.60660172
| 18> B      1.17851130      2.35702260     10.60660172
| 19> B      1.17851130     12.96362432      0.00000000
| 20> B      4.71404521     -8.24957911     -3.53553391
| 21> B      4.71404521     -8.24957911      3.53553391
| 22> B      4.71404521     -1.17851130    -10.60660172
| 23> B      4.71404521     -1.17851130     10.60660172
| 24> *
| 25> 
| 26>                          ****END OF INPUT****
================================================================================

                       *****************************
                       * Geometry Optimization Run *
                       *****************************

Geometry optimization settings:
Update method            Update   .... BFGS
Choice of coordinates    CoordSys .... (2022) Redundant Internals
Initial Hessian          InHess   .... Almloef's Model
Max. no of cycles        MaxIter  .... 300

Convergence Tolerances:
Energy Change            TolE     ....  5.0000e-06 Eh
Max. Gradient            TolMAXG  ....  3.0000e-04 Eh/bohr
RMS Gradient             TolRMSG  ....  1.0000e-04 Eh/bohr
Max. Displacement        TolMAXD  ....  4.0000e-03 bohr
RMS Displacement         TolRMSD  ....  2.0000e-03 bohr
Strict Convergence                .... False

------------------------------------------------------------------------------
                        ORCA OPTIMIZATION COORDINATE SETUP
------------------------------------------------------------------------------

The optimization will be done in redundant internal coordinates (2022)
Making redundant internal coordinates   ...  (2022 redundants) done
Evaluating the initial hessian          ...  (Almloef) done
Evaluating the coordinates              ...  done
Calculating the B-matrix                .... done
Calculating the G-matrix                .... done
The number of degrees of freedom        ....   63

    -----------------------------------------------------------------
                    Redundant Internal Coordinates


    -----------------------------------------------------------------
         Definition                    Initial Value    Approx d2E/dq
    -----------------------------------------------------------------
      1. B(B   1,B   0)                  5.0000         0.010000   
      2. B(B   2,B   0)                  5.0000         0.010000   
      3. B(B   3,B   2)                  5.0000         0.010000   
      4. B(B   3,B   1)                  5.0000         0.010000   
      5. B(B   4,B   0)                 10.0000         0.010000   
      6. B(B   5,B   0)                 13.2288         0.010000   
      7. B(B   5,B   1)                 10.0000         0.010000   
      8. B(B   6,B   0)                 13.2288         0.010000   
      9. B(B   6,B   2)                 10.0000         0.010000   
     10. B(B   6,B   5)                 21.2132         0.010000   
     11. B(B   7,B   3)                 10.0000         0.010000   
     12. B(B   7,B   6)                 15.0000         0.010000   
     13. B(B   7,B   5)                 15.0000         0.010000   
     14. B(B   7,B   0)                 15.8114         0.010000   
     15. B(B   8,B   4)                  5.0000         0.010000   
     16. B(B   8,B   7)                 21.7945         0.010000   
     17. B(B   8,B   6)                 18.0278         0.010000   
     18. B(B   8,B   5)                 13.2288         0.010000   
     19. B(B   8,B   0)                 13.2288         0.010000   
     20. B(B   9,B   4)                  5.0000         0.010000   
     21. B(B  10,B   5)                  5.0000         0.010000   
     22. B(B  11,B   6)                  5.0000         0.010000   
     23. A(B   2,B   0,B   4)          120.0000         0.089016   
     24. A(B   1,B   0,B   2)           90.0000         0.090020   
     25. A(B   1,B   0,B   4)          120.0000         0.089016   
     26. A(B   3,B   1,B   5)          120.0000         0.089016   
     27. A(B   0,B   1,B   5)          120.0000         0.089016   
     28. A(B   0,B   1,B   3)           90.0000         0.090020   
     29. A(B   3,B   2,B   6)          120.0000         0.089016   
     30. A(B   0,B   2,B   6)          120.0000         0.089016   
     31. A(B   0,B   2,B   3)           90.0000         0.090020   
     32. A(B   1,B   3,B   7)          120.0000         0.089016   
     33. A(B   1,B   3,B   2)           90.0000         0.090020   
     34. A(B   2,B   3,B   7)          120.0000         0.089016   
     35. A(B   0,B   4,B   8)          120.0000         0.089016   
     36. A(B   8,B   4,B   9)           90.0000         0.090020   
     37. A(B   0,B   4,B   9)          120.0000         0.089016   
     38. A(B   1,B   5,B  10)          120.0000         0.089016   
     39. A(B   2,B   6,B  11)          120.0000         0.089016   
     40. D(B   3,B   1,B   0,B   4)   -125.2644         0.010000   
     41. D(B   5,B   1,B   0,B   4)     -0.0000         0.010000   
     42. D(B   5,B   1,B   0,B   2)    125.2644         0.010000   
     43. D(B   3,B   1,B   0,B   2)      0.0000         0.010000   
     44. D(B   3,B   2,B   0,B   4)    125.2644         0.010000   
     45. D(B   3,B   2,B   0,B   1)      0.0000         0.010000   
     46. D(B   6,B   2,B   0,B   1)   -125.2644         0.010000   
     47. D(B   6,B   2,B   0,B   4)      0.0000         0.010000   
     48. D(B   1,B   3,B   2,B   6)    125.2644         0.010000   
     49. D(B   1,B   3,B   2,B   0)      0.0000         0.010000   
     50. D(B   7,B   3,B   1,B   5)      0.0000         0.010000   
     51. D(B   7,B   3,B   1,B   0)    125.2644         0.010000   
     52. D(B   2,B   3,B   1,B   5)   -125.2644         0.010000   
     53. D(B   7,B   3,B   2,B   0)   -125.2644         0.010000   
     54. D(B   2,B   3,B   1,B   0)      0.0000         0.010000   
     55. D(B   7,B   3,B   2,B   6)      0.0000         0.010000   
     56. D(B   9,B   4,B   0,B   2)     -0.0000         0.010000   
     57. D(B   9,B   4,B   0,B   1)    109.4712         0.010000   
     58. D(B   8,B   4,B   0,B   2)   -109.4712         0.010000   
     59. D(B   8,B   4,B   0,B   1)      0.0000         0.010000   
     60. D(B  10,B   5,B   1,B   3)    109.4712         0.010000   
     61. D(B  10,B   5,B   1,B   0)      0.0000         0.010000   
     62. D(B  11,B   6,B   2,B   3)   -109.4712         0.010000   
     63. D(B  11,B   6,B   2,B   0)      0.0000         0.010000   
    -----------------------------------------------------------------

Number of atoms                         .... 12
Number of degrees of freedom            .... 63


         *************************************************************
         *                GEOMETRY OPTIMIZATION CYCLE   1            *
         *************************************************************
---------------------------------
CARTESIAN COORDINATES (ANGSTROEM)
---------------------------------
  B     -5.892557   -1.178511    0.000000
  B     -5.892557    2.357023   -3.535534
  B     -5.892557    2.357023    3.535534
  B     -5.892557    5.892557    0.000000
  B      1.178511   -8.249579    0.000000
  B      1.178511    2.357023  -10.606602
  B      1.178511    2.357023   10.606602
  B      1.178511   12.963624    0.000000
  B      4.714045   -8.249579   -3.535534
  B      4.714045   -8.249579    3.535534
  B      4.714045   -1.178511  -10.606602
  B      4.714045   -1.178511   10.606602

----------------------------
CARTESIAN COORDINATES (A.U.)
----------------------------
  NO LB      ZA    FRAG     MASS         X           Y           Z
   0 B     5.0000    0    10.810  -11.135318   -2.227064    0.000000
   1 B     5.0000    0    10.810  -11.135318    4.454127   -6.681191
   2 B     5.0000    0    10.810  -11.135318    4.454127    6.681191
   3 B     5.0000    0    10.810  -11.135318   11.135318    0.000000
   4 B     5.0000    0    10.810    2.227064  -15.589445    0.000000
   5 B     5.0000    0    10.810    2.227064    4.454127  -20.043572
   6 B     5.0000    0    10.810    2.227064    4.454127   20.043572
   7 B     5.0000    0    10.810    2.227064   24.497700    0.000000
   8 B     5.0000    0    10.810    8.908254  -15.589445   -6.681191
   9 B     5.0000    0    10.810    8.908254  -15.589445    6.681191
  10 B     5.0000    0    10.810    8.908254   -2.227064  -20.043572
  11 B     5.0000    0    10.810    8.908254   -2.227064   20.043572

--------------------------------
INTERNAL COORDINATES (ANGSTROEM)
--------------------------------
 B      0   0   0     0.000000000000     0.00000000     0.00000000
 B      1   0   0     4.999999998681     0.00000000     0.00000000
 B      1   2   0     4.999999998681    90.00000016     0.00000000
 B      2   1   3     5.000000005752    89.99999992     0.00000000
 B      1   2   3     9.999999997362   119.99999995   234.73561028
 B      2   1   3     9.999999997362   120.00000005   125.26438964
 B      3   1   2     9.999999997362   120.00000005   234.73561036
 B      4   2   1     9.999999997362   120.00000000   125.26438968
 B      5   1   2     5.000000005752   120.00000000     0.00000000
 B      5   1   2     5.000000005752   120.00000000   109.47122071
 B      6   2   1     4.999999998681   120.00000005     0.00000000
 B      7   3   1     4.999999998681   120.00000005     0.00000000

---------------------------
INTERNAL COORDINATES (A.U.)
---------------------------
 B      0   0   0     0.000000000000     0.00000000     0.00000000
 B      1   0   0     9.448630667114     0.00000000     0.00000000
 B      1   2   0     9.448630667114    90.00000016     0.00000000
 B      2   1   3     9.448630680476    89.99999992     0.00000000
 B      1   2   3    18.897261334227   119.99999995   234.73561028
 B      2   1   3    18.897261334227   120.00000005   125.26438964
 B      3   1   2    18.897261334227   120.00000005   234.73561036
 B      4   2   1    18.897261334227   120.00000000   125.26438968
 B      5   1   2     9.448630680476   120.00000000     0.00000000
 B      5   1   2     9.448630680476   120.00000000   109.47122071
 B      6   2   1     9.448630667114   120.00000005     0.00000000
 B      7   3   1     9.448630667114   120.00000005     0.00000000

---------------------
BASIS SET INFORMATION
---------------------
There are 1 groups of distinct atoms

 Group   1 Type B   : 7s4p1d contracted to 3s2p1d pattern {511/31/1}

Atom   0B    basis set group =>   1
Atom   1B    basis set group =>   1
Atom   2B    basis set group =>   1
Atom   3B    basis set group =>   1
Atom   4B    basis set group =>   1
Atom   5B    basis set group =>   1
Atom   6B    basis set group =>   1
Atom   7B    basis set group =>   1
Atom   8B    basis set group =>   1
Atom   9B    basis set group =>   1
Atom  10B    basis set group =>   1
Atom  11B    basis set group =>   1
---------------------------------
AUXILIARY/J BASIS SET INFORMATION
---------------------------------
There are 1 groups of distinct atoms

 Group   1 Type B   : 12s5p4d2f1g contracted to 6s4p3d1f1g pattern {711111/2111/211/2/1}

Atom   0B    basis set group =>   1
Atom   1B    basis set group =>   1
Atom   2B    basis set group =>   1
Atom   3B    basis set group =>   1
Atom   4B    basis set group =>   1
Atom   5B    basis set group =>   1
Atom   6B    basis set group =>   1
Atom   7B    basis set group =>   1
Atom   8B    basis set group =>   1
Atom   9B    basis set group =>   1
Atom  10B    basis set group =>   1
Atom  11B    basis set group =>   1


           ************************************************************
           *        Program running with 8 parallel MPI-processes     *
           *              working on a common directory               *
           ************************************************************
------------------------------------------------------------------------------
                             ORCA STARTUP CALCULATIONS
                           -- RI-GTO INTEGRALS CHOSEN --
------------------------------------------------------------------------------
------------------------------------------------------------------------------
                   ___                                                        
                  /   \      - P O W E R E D   B Y -                         
                 /     \                                                     
                 |  |  |   _    _      __       _____    __    __             
                 |  |  |  | |  | |    /  \     |  _  \  |  |  /  |          
                  \  \/   | |  | |   /    \    | | | |  |  | /  /          
                 / \  \   | |__| |  /  /\  \   | |_| |  |  |/  /          
                |  |  |   |  __  | /  /__\  \  |    /   |      \           
                |  |  |   | |  | | |   __   |  |    \   |  |\   \          
                \     /   | |  | | |  |  |  |  | |\  \  |  | \   \       
                 \___/    |_|  |_| |__|  |__|  |_| \__\ |__|  \__/        
                                                                              
                      - O R C A' S   B I G   F R I E N D -                    
                                      &                                       
                       - I N T E G R A L  F E E D E R -                       
                                                                              
 v1 FN, 2020, v2 2021, v3 2022-2024                                           
------------------------------------------------------------------------------


----------------------
SHARK INTEGRAL PACKAGE
----------------------

Number of atoms                             ...     12
Number of basis functions                   ...    168
Number of shells                            ...     72
Maximum angular momentum                    ...      2
Integral batch strategy                     ... SHARK/LIBINT Hybrid
RI-J (if used) integral strategy            ... SPLIT-RIJ (Revised 2003 algorithm where possible)
Printlevel                                  ...      1
Contraction scheme used                     ... SEGMENTED contraction
Prescreening option                         ... SCHWARTZ
   Thresh                                   ... 2.500e-11
   Tcut                                     ... 2.500e-12
   Tpresel                                  ... 2.500e-12 
Coulomb Range Separation                    ... NOT USED
Exchange Range Separation                   ... NOT USED
Multipole approximations                    ... NOT USED
Finite Nucleus Model                        ... NOT USED
CABS basis                                  ... NOT available
Auxiliary Coulomb fitting basis             ... AVAILABLE
   # of basis functions in Aux-J            ...    588
   # of shells in Aux-J                     ...    180
   Maximum angular momentum in Aux-J        ...      4
Auxiliary J/K fitting basis                 ... NOT available
Auxiliary Correlation fitting basis         ... NOT available
Auxiliary 'external' fitting basis          ... NOT available

Checking pre-screening integrals            ... done (  0.0 sec) Dimension = 72
   => SHARK Basis and OBASIS are compatible. Storing Pre-screening
Shell pair information
Shell pair cut-off parameter TPreSel        ...   2.5e-12
Total number of shell pairs                 ...      2628
Shell pairs after pre-screening             ...       697
Total number of primitive shell pairs       ...     10596
Primitive shell pairs kept                  ...      1873
          la=0 lb=0:    188 shell pairs
          la=1 lb=0:    234 shell pairs
          la=1 lb=1:     95 shell pairs
          la=2 lb=0:     86 shell pairs
          la=2 lb=1:     74 shell pairs
          la=2 lb=2:     20 shell pairs

Checking whether 4 symmetric matrices of dimension 168 fit in memory
:Max Core in MB      =   2500.00
 MB in use           =      4.30
 MB left             =   2495.70
 MB needed           =      0.43
 Data fit in memory  = YES
Calculating RI/J V-Matrix + Cholesky decomp.... done (  0.1 sec)
Calculating Nuclear repulsion               ... done (  0.0 sec) ENN=     76.154953179456 Eh

Diagonalization of the overlap matrix:
Smallest eigenvalue                        ... 1.563e-01
Time for diagonalization                   ...    0.004 sec
Threshold for overlap eigenvalues          ... 1.000e-07
Number of eigenvalues below threshold      ... 0
Time for construction of square roots      ...    0.002 sec
Total time needed                          ...    0.012 sec

-------------------
DFT GRID GENERATION
-------------------

General Integration Accuracy     IntAcc      ... 4.388
Radial Grid Type                 RadialGrid  ... OptM3 with GC (2021)
Angular Grid (max. ang.)         AngularGrid ... 4 (Lebedev-302)
Angular grid pruning method      GridPruning ... 4 (adaptive)
Weight generation scheme         WeightScheme... mBecke (2022)
Basis function cutoff            BFCut       ... 1.0000e-11
Integration weight cutoff        WCut        ... 1.0000e-14
Partially contracted basis set               ... off
Rotationally invariant grid construction     ... off
Angular grids for H and He will be reduced by one unit

Total number of grid points                  ...    73616
Total number of batches                      ...     1153
Average number of points per batch           ...       63
Average number of grid points per atom       ...     6135
Grids setup in   0.8 sec
Initializing property integral containers    ... done (  0.0 sec)

SHARK setup successfully completed in   1.1 seconds

Maximum memory used throughout the entire STARTUP-calculation: 17.4 MB


           ************************************************************
           *        Program running with 8 parallel MPI-processes     *
           *              working on a common directory               *
           ************************************************************
-------------------------------------------------------------------------------
                                 ORCA GUESS
                   Start orbitals & Density for SCF / CASSCF
-------------------------------------------------------------------------------

------------
SCF SETTINGS
------------
Hamiltonian:
 Density Functional     Method          .... DFT(GTOs)
 Exchange Functional    Exchange        .... B88
   X-Alpha parameter    XAlpha          ....  0.666667
   Becke's b parameter  XBeta           ....  0.004200
 Correlation Functional Correlation     .... P86
 LDA part of GGA corr.  LDAOpt          .... PW91-LDA
 Gradients option       PostSCFGGA      .... off
   NL short-range parameter             ....  4.400000
 RI-approximation to the Coulomb term is turned on
   Number of AuxJ basis functions       .... 588


General Settings:
 Integral files         IntName         .... trunc_tetrahedron_nn5.00
 Hartree-Fock type      HFTyp           .... RHF
 Total Charge           Charge          ....    0
 Multiplicity           Mult            ....    1
 Number of Electrons    NEL             ....   60
 Basis Dimension        Dim             ....  168
 Nuclear Repulsion      ENuc            ....     76.1549531795 Eh

Convergence Acceleration:
 AO-DIIS                CNVDIIS         .... on
   Start iteration      DIISMaxIt       ....     0
   Startup error        DIISStart       ....  0.200000
   # of expansion vecs  DIISMaxEq       ....     5
   Bias factor          DIISBfac        ....   1.050
   Max. coefficient     DIISMaxC        ....  10.000
 MO-DIIS                CNVKDIIS        .... off
 Trust-Rad. Augm. Hess. CNVTRAH         .... auto
   Auto Start mean grad. ratio tolernc. ....  1.125000
   Auto Start start iteration           ....    50
   Auto Start num. interpolation iter.  ....    10
   Max. Number of Micro iterations      ....    24
   Max. Number of Macro iterations      .... Maxiter - #DIIS iter
   Number of Davidson start vectors     ....     2
   Converg. threshold    (grad. norm)   ....   1.000e-05
   Grad. Scal. Fac. for Micro threshold ....   0.100
   Minimum threshold for Micro iter.    ....   1.000e-02
   NR start threshold (gradient norm)   ....   1.000e-04
   Initial trust radius                 ....   0.400
   Minimum AH scaling param. (alpha)    ....   1.000
   Maximum AH scaling param. (alpha)    .... 1000.000
   Quad. conv. algorithm                .... NR
   White noise on init. David. guess    .... on
   Maximum white noise                  ....   0.010
   Pseudo random numbers                .... off
   Inactive MOs                         .... canonical
   Orbital update algorithm             .... Taylor
   Preconditioner                       .... Diag
   Full preconditioner red. dimension   ....   250
 SOSCF                 CNVSOSCF           .... on
   Start iteration     SOSCFMaxIt         ....   150
   Startup grad/error  SOSCFStart         ....  0.001000
   Hessian update      SOSCFHessUp        .... L-BFGS
   Autom. constraints  SOSCFAutoConstrain .... off
 Level Shifting         CNVShift        .... on
   Level shift para.    LevelShift      ....    0.2500
   Turn off err/grad.   ShiftErr        ....    0.0000
 Zerner damping         CNVZerner       .... off
 Static damping         CNVDamp         .... on
   Fraction old density DampFac         ....    0.8500
   Max. Damping (<1)    DampMax         ....    0.9800
   Min. Damping (>=0)   DampMin         ....    0.0000
   Turn off err/grad.   DampErr         ....    0.0300

SCF Procedure:
 Maximum # iterations   MaxIter         ....   125
 SCF integral mode      SCFMode         .... Direct
   Integral package                     .... SHARK and LIBINT hybrid scheme
 Reset frequency        DirectResetFreq ....    20
 Integral Threshold     Thresh          ....  2.500e-11 Eh
 Primitive CutOff       TCut            ....  2.500e-12 Eh

Convergence Tolerance:
 Convergence Check Mode ConvCheckMode   .... Total+1el-Energy
 Convergence forced     ConvForced      .... 0
 Energy Change          TolE            ....  1.000e-08 Eh
 1-El. energy change                    ....  1.000e-05 Eh
 Orbital Gradient       TolG            ....  1.000e-05
 Orbital Rotation angle TolX            ....  1.000e-05
 DIIS Error             TolErr          ....  5.000e-07

------------------------------
INITIAL GUESS: MODEL POTENTIAL
------------------------------
Loading Hartree-Fock densities                     ... done
Calculating cut-offs                               ... done
Initializing the effective Hamiltonian             ... done
Setting up the integral package (SHARK)            ... done
Starting the Coulomb interaction                   ... done (   0.0 sec)
Making the grid                                    ... done (   0.1 sec)
Mapping shells                                     ... done
Starting the XC term evaluation                    ... done (   0.0 sec)
  promolecular density results
     # of electrons  =     59.996824462
     EX              =    -44.176832194
     EC              =     -1.557028259
     EX+EC           =    -45.733860453
Transforming the Hamiltonian                       ... done (   0.0 sec)
Diagonalizing the Hamiltonian                      ... done (   0.0 sec)
Back transforming the eigenvectors                 ... done (   0.0 sec)
Now organizing SCF variables                       ... done
                      ------------------
                      INITIAL GUESS DONE (   0.2 sec)
                      ------------------
             **** ENERGY FILE WAS UPDATED (trunc_tetrahedron_nn5.00.en.tmp) ****
Finished Guess after   0.7 sec
Maximum memory used throughout the entire GUESS-calculation: 8.3 MB


           ************************************************************
           *        Program running with 8 parallel MPI-processes     *
           *              working on a common directory               *
           ************************************************************

-------------------------------------------------------------------------------------------
                                      ORCA LEAN-SCF
                              memory conserving SCF solver
-------------------------------------------------------------------------------------------

----------------------------------------D-I-I-S--------------------------------------------
Iteration    Energy (Eh)           Delta-E    RMSDP     MaxDP     DIISErr   Damp  Time(sec)
-------------------------------------------------------------------------------------------
               ***  Starting incremental Fock matrix formation  ***
    1    -294.9588260085685079     0.00e+00  1.16e-02  2.08e-01  1.39e-01  0.850   0.2
Warning: op=0 Small HOMO/LUMO gap (  -0.125) - skipping pre-diagonalization
         Will do a full diagonalization
    2    -295.2013207779290838    -2.42e-01  8.44e-03  1.24e-01  5.74e-02  0.850   0.2
                               ***Turning on AO-DIIS***
    3    -295.0231155145347088     1.78e-01  7.01e-03  9.12e-02  7.37e-02  0.850   0.4
    4    -295.1221227561659930    -9.90e-02  5.67e-03  7.00e-02  4.35e-02  0.850   0.1
    5    -295.1612662448902142    -3.91e-02  4.76e-03  5.56e-02  4.17e-02  0.850   0.2
    6    -295.1638698936816354    -2.60e-03  4.04e-03  4.52e-02  5.12e-02  0.850   0.3
    7    -295.1449301623276256     1.89e-02  3.67e-03  4.72e-02  5.64e-02  0.850   0.1
    8    -295.1126142821151461     3.23e-02  3.27e-03  4.51e-02  6.09e-02  0.850   0.1
    9    -295.0740724685883833     3.85e-02  2.81e-03  4.20e-02  6.67e-02  0.850   0.1
   10    -295.0435623038641779     3.05e-02  3.01e-03  3.94e-02  7.61e-02  0.850   0.2
   11    -295.0492561677137360    -5.69e-03  4.74e-03  9.33e-02  8.12e-02  0.850   0.1
   12    -295.1029937013177005    -5.37e-02  4.65e-03  8.37e-02  7.23e-02  0.850   0.3
   13    -295.1223236313656457    -1.93e-02  4.74e-03  7.11e-02  7.29e-02  0.850   0.2
   14    -295.1001966373511891     2.21e-02  7.90e-03  1.69e-01  6.91e-02  0.850   0.2
   15    -295.2436038256897746    -1.43e-01  6.00e-03  1.06e-01  3.80e-02  0.850   0.1
   16    -295.2221685696283657     2.14e-02  5.03e-03  7.42e-02  3.74e-02  0.850   0.1
   17    -295.1082341364337935     1.14e-01  4.32e-03  5.91e-02  6.80e-02  0.850   0.1
   18    -294.9448921515103166     1.63e-01  3.80e-03  5.14e-02  1.02e-01  0.850   0.2
   19    -294.7605880550664779     1.84e-01  3.30e-03  4.46e-02  1.36e-01  0.850   0.1
   20    -294.5709211766717317     1.90e-01  2.88e-03  3.96e-02  1.70e-01  0.850   0.1
               *** Restarting incremental Fock matrix formation ***
                             ****Resetting DIIS****
Warning: op=0 Small HOMO/LUMO gap (  -0.968) - skipping pre-diagonalization
         LevelShift set to 1.000 Eh
         Will do a full diagonalization
   21    -294.3871000197599415     1.84e-01  5.96e-03  1.13e-01  2.02e-01  0.850   0.1
   22    -294.2707577022355849     1.16e-01  6.41e-03  1.20e-01  1.89e-01  0.850   0.1
   23    -294.1732257890457731     9.75e-02  9.18e-03  1.80e-01  1.65e-01  0.850   0.1
   24    -294.5826944714890487    -4.09e-01  7.09e-03  1.22e-01  8.87e-02  0.850   0.1
   25    -294.7755882105867045    -1.93e-01  5.70e-03  7.95e-02  5.45e-02  0.850   0.1
   26    -294.8423502458426242    -6.68e-02  4.78e-03  5.39e-02  8.99e-02  0.850   0.1
   27    -294.8445500837523809    -2.20e-03  4.22e-03  4.58e-02  1.21e-01  0.850   0.1
   28    -294.8284997732086481     1.61e-02  3.92e-03  3.89e-02  1.42e-01  0.850   0.1
   29    -294.8250193514328998     3.48e-03  3.90e-03  3.62e-02  1.50e-01  0.850   0.1
   30    -294.8498586930457463    -2.48e-02  4.25e-03  4.11e-02  1.43e-01  0.850   0.1
   31    -294.9065607216338094    -5.67e-02  4.79e-03  5.23e-02  1.34e-01  0.850   0.2
   32    -294.9743207517158794    -6.78e-02  4.99e-03  5.77e-02  1.35e-01  0.850   0.2
   33    -295.0234306901543846    -4.91e-02  4.79e-03  5.41e-02  1.38e-01  0.850   0.2
   34    -295.0488677515193103    -2.54e-02  4.62e-03  7.25e-02  1.36e-01  0.850   0.2
   35    -295.0582429775224682    -9.38e-03  4.57e-03  8.58e-02  1.29e-01  0.850   0.1
   36    -295.0574411843730331     8.02e-04  4.53e-03  9.05e-02  1.19e-01  0.850   0.2
   37    -295.0505578561048310     6.88e-03  4.37e-03  8.88e-02  1.07e-01  0.850   0.4
   38    -295.0400710546789469     1.05e-02  4.22e-03  8.41e-02  9.57e-02  0.850   0.2
   39    -295.0295943004825858     1.05e-02  3.98e-03  7.72e-02  8.47e-02  0.850   0.1
   40    -295.0205372384458542     9.06e-03  3.72e-03  6.97e-02  7.46e-02  0.850   0.3
               *** Restarting incremental Fock matrix formation ***
                             ****Resetting DIIS****
Warning: op=0 Small HOMO/LUMO gap (  -0.484) - skipping pre-diagonalization
         LevelShift set to 0.584 Eh
         Will do a full diagonalization
   41    -295.0147921768623860     5.75e-03  4.88e-03  6.63e-02  7.44e-02  0.850   0.2
   42    -295.0558980270434972    -4.11e-02  4.72e-03  5.95e-02  5.43e-02  0.850   0.1
   43    -295.1180426617061130    -6.21e-02  4.74e-03  9.66e-02  4.05e-02  0.850   0.1
   44    -295.1845702529220148    -6.65e-02  4.20e-03  9.35e-02  4.88e-02  0.850   0.1
   45    -295.2297388085399348    -4.52e-02  3.61e-03  7.77e-02  4.18e-02  0.850   0.1
   46    -295.2522029337326330    -2.25e-02  3.19e-03  6.68e-02  3.27e-02  0.850   0.1
   47    -295.2575691361799386    -5.37e-03  2.84e-03  5.73e-02  3.76e-02  0.850   0.1
   48    -295.2505804540666645     6.99e-03  2.52e-03  4.78e-02  4.74e-02  0.850   0.1
   49    -295.2358845277024670     1.47e-02  2.24e-03  3.80e-02  5.67e-02  0.850   0.1
   50    -295.2173411916405144     1.85e-02  2.05e-03  2.97e-02  6.88e-02  0.850   0.1

       ******************************************************************************
       ***                                                                        ***
       ***                               Auto-TRAH                                ***
       ***                               ---------                                ***
       *** the maximum gradient error decreased on average only by a factor   1.0 ***
       *** during the last  10 iterations                                         ***
       ***                                                                        ***
       ***               Leaving SCF to start the TRAH-SCF procedure              ***
       ***                                                                        ***
       ******************************************************************************

 --------------------------------------------------------------------------------------------
   Iter.        energy            ||Error||_2        Shift      TRadius  Mac/Mic        Rej.
 --------------------------------------------------------------------------------------------
    0       -294.995009138837     8.776930e-01                     0.400 (TRAH MAcro)   No
WARNING: 182 diagonal Hessian elements are negative!
WARNING : negative HOMO - LUMO gap : -0.534717
WARNING : negative HOMO - LUMO gap : -0.534717
    0     dE    -2.718440e-01     3.718054e-01    -2.1989e+00      0.364 (TRAH MIcro)
    0     dE    -3.210768e-01     6.580739e-02    -2.6283e+00      0.400 (TRAH MIcro)
    0     dE    -3.164941e-01     2.121026e-02    -2.6360e+00      0.394 (TRAH MIcro)
    0     dE    -3.175226e-01     2.621023e-03    -2.6364e+00      0.395 (TRAH MIcro)
    1       -295.235209636117     4.705967e-01                     0.480 (TRAH MAcro)   No
WARNING: 112 diagonal Hessian elements are negative!
WARNING : negative HOMO - LUMO gap : -0.167340
WARNING : negative HOMO - LUMO gap : -0.167340
    1     dE    -6.924839e-02     2.426553e-01    -1.2826e-01      0.283 (TRAH MIcro)
    1     dE    -7.117705e-02     2.349354e-01    -1.3093e-01      0.295 (TRAH MIcro)
    1     dE    -7.818878e-02     1.922260e-01    -1.4065e-01      0.334 (TRAH MIcro)
    1     dE    -8.704329e-02     7.238610e-02    -1.5236e-01      0.378 (TRAH MIcro)
    1     dE    -8.802442e-02     3.532281e-02    -1.5372e-01      0.381 (TRAH MIcro)
    1     dE    -8.908950e-02     7.339045e-02    -1.5471e-01      0.390 (TRAH MIcro)
    1     dE    -1.067238e-01     2.398622e-01    -3.3070e-01      0.480 (TRAH MIcro)
    1     dE    -8.457589e-02     6.505988e-02    -4.6975e-01      0.322 (TRAH MIcro)
    1     dE    -6.892010e-02     2.466927e-02    -8.3478e-01      0.224 (TRAH MIcro)
    1     dE    -6.894553e-02     2.337349e-03    -8.3617e-01      0.224 (TRAH MIcro)
    2       -295.296013860971     9.988994e-02                     0.576 (TRAH MAcro)   No
WARNING: 74 diagonal Hessian elements are negative!
WARNING : negative HOMO - LUMO gap : -0.019615
WARNING : negative HOMO - LUMO gap : -0.019615
    2     dE    -1.937350e-03     7.834079e-02    -3.8674e-03      0.043 (TRAH MIcro)
    2     dE    -2.046934e-03     7.760002e-02    -4.0722e-03      0.073 (TRAH MIcro)
    2     dE    -2.380350e-03     7.380657e-02    -4.6286e-03      0.169 (TRAH MIcro)
    2     dE    -2.865417e-03     5.950578e-02    -5.2353e-03      0.308 (TRAH MIcro)
    2     dE    -3.073097e-03     5.210386e-02    -5.5829e-03      0.318 (TRAH MIcro)
    2     dE    -3.429206e-03     3.455261e-02    -6.4526e-03      0.251 (TRAH MIcro)
    2     dE    -3.506232e-03     2.534998e-02    -6.6820e-03      0.222 (TRAH MIcro)
    2     dE    -3.570513e-03     1.010485e-02    -6.9027e-03      0.186 (TRAH MIcro)
    2     dE    -3.580939e-03     1.283787e-02    -6.9260e-03      0.185 (TRAH MIcro)
    2     dE    -3.622072e-03     9.751708e-03    -6.9971e-03      0.188 (TRAH MIcro)
    3       -295.299471561653     2.625891e-02                     0.691 (TRAH MAcro)   No
WARNING: 51 diagonal Hessian elements are negative!
WARNING : negative HOMO - LUMO gap : -0.006366
WARNING : negative HOMO - LUMO gap : -0.006366
    3     dE    -1.029137e-04     1.628559e-02    -2.0580e-04      0.011 (TRAH MIcro)
    3     dE    -1.775326e-04     1.127617e-02    -3.5495e-04      0.018 (TRAH MIcro)
    3     dE    -1.993553e-04     1.326747e-02    -3.9851e-04      0.022 (TRAH MIcro)
    3     dE    -4.025227e-04     2.399030e-02    -7.9820e-04      0.093 (TRAH MIcro)
    3     dE    -6.512761e-04     1.077773e-02    -1.2549e-03      0.195 (TRAH MIcro)
    3     dE    -6.603469e-04     8.634857e-03    -1.2709e-03      0.198 (TRAH MIcro)
    3     dE    -6.649722e-04     7.383953e-03    -1.2792e-03      0.199 (TRAH MIcro)
    3     dE    -6.683369e-04     7.137143e-03    -1.2857e-03      0.199 (TRAH MIcro)
    3     dE    -6.782150e-04     3.507624e-03    -1.3044e-03      0.200 (TRAH MIcro)
    3     dE    -6.796643e-04     1.865864e-03    -1.3079e-03      0.198 (TRAH MIcro)
    4       -295.299733462409     4.352032e-02                     0.691 (TRAH MAcro)   No
WARNING: 56 diagonal Hessian elements are negative!
WARNING : negative HOMO - LUMO gap : -0.022445
WARNING : negative HOMO - LUMO gap : -0.022445
    4     dE    -3.565629e-04     7.220785e-03    -7.1285e-04      0.020 (TRAH MIcro)
    4     dE    -3.626560e-04     5.478437e-03    -7.2502e-04      0.020 (TRAH MIcro)
    4     dE    -3.680058e-04     4.493524e-03    -7.3571e-04      0.020 (TRAH MIcro)
    4     dE    -4.109103e-04     6.810382e-03    -8.2024e-04      0.044 (TRAH MIcro)
    4     dE    -4.177865e-04     4.117557e-03    -8.3357e-04      0.049 (TRAH MIcro)
    5       -295.300167636818     4.620239e-03                     0.829 (TRAH MAcro)   No
WARNING: 47 diagonal Hessian elements are negative!
WARNING : negative HOMO - LUMO gap : -0.005597
WARNING : negative HOMO - LUMO gap : -0.005597
    5     dE    -2.164393e-05     1.067051e-02    -4.3249e-05      0.030 (TRAH MIcro)
    5     dE    -2.800262e-05     1.445918e-02    -5.5898e-05      0.044 (TRAH MIcro)
    5     dE    -3.204290e-05     1.673516e-02    -6.3905e-05      0.053 (TRAH MIcro)
    5     dE    -5.389616e-05     2.850361e-02    -1.0662e-04      0.105 (TRAH MIcro)
    5     dE    -2.602180e-03     1.260218e-01    -6.5792e-03      0.829 (TRAH MIcro)
    5     dE    -7.683829e-03     3.963202e-02    -2.1150e-02      0.829 (TRAH MIcro)
    5     dE    -8.224561e-03     1.426103e-02    -2.2691e-02      0.829 (TRAH MIcro)
    5     dE    -8.272320e-03     1.204662e-02    -2.2838e-02      0.829 (TRAH MIcro)
    5     dE    -8.342079e-03     1.125320e-02    -2.3050e-02      0.829 (TRAH MIcro)
    5     dE    -8.367834e-03     5.110514e-03    -2.3133e-02      0.829 (TRAH MIcro)
    5     dE    -8.368780e-03     4.758627e-03    -2.3136e-02      0.829 (TRAH MIcro)
    5     dE    -8.373549e-03     1.582077e-03    -2.3156e-02      0.829 (TRAH MIcro)
    5     dE    -8.373915e-03     2.521734e-04    -2.3155e-02      0.829 (TRAH MIcro)
 ---------------------------------
          TRAH Step control 
 ---------------------------------
  predicted energy change =    -8.373914892371e-03
  actual energy  change   =     2.723320513439e-01
  energy change ratio     = -32.521474
  old trust radius        = 0.829440
  new trust radius        = 0.555725
  reject step?            = YES
    6       -295.027835585474     4.620239e-03                     0.556 (TRAH MAcro)  Yes
    7       -295.027835585474     1.615076e+00                     0.556 (TRAH MAcro)   No
WARNING: 141 diagonal Hessian elements are negative!
WARNING : negative HOMO - LUMO gap : -0.351045
WARNING : negative HOMO - LUMO gap : -0.351045
    7     dE    -2.695231e-01     2.015678e-01    -4.9111e-01      0.312 (TRAH MIcro)
    7     dE    -3.058824e-01     4.831867e-02    -5.1867e-01      0.424 (TRAH MIcro)
    7     dE    -3.070273e-01     2.280289e-02    -5.1913e-01      0.428 (TRAH MIcro)
    7     dE    -3.074123e-01     1.659986e-02    -5.1928e-01      0.429 (TRAH MIcro)
    7     dE    -3.077546e-01     5.426173e-02    -5.1942e-01      0.430 (TRAH MIcro)
    7     dE    -2.600052e-01     4.659931e-02    -1.5851e+00      0.268 (TRAH MIcro)
    7     dE    -2.605210e-01     1.022689e-02    -1.5867e+00      0.269 (TRAH MIcro)
    7     dE    -2.605745e-01     2.434759e-03    -1.5868e+00      0.269 (TRAH MIcro)
    8       -295.280874737514     3.862370e-01                     0.667 (TRAH MAcro)   No
WARNING: 72 diagonal Hessian elements are negative!
WARNING : negative HOMO - LUMO gap : -0.050696
WARNING : negative HOMO - LUMO gap : -0.050696
    8     dE    -1.805919e-02     7.998978e-02    -3.5797e-02      0.095 (TRAH MIcro)
    8     dE    -1.822880e-02     7.635863e-02    -3.6121e-02      0.096 (TRAH MIcro)
    8     dE    -1.906002e-02     5.313648e-02    -3.7689e-02      0.107 (TRAH MIcro)
    8     dE    -1.961882e-02     1.073019e-02    -3.8729e-02      0.115 (TRAH MIcro)
    8     dE    -1.962609e-02     8.855115e-03    -3.8743e-02      0.115 (TRAH MIcro)
    9       -295.301412011638     3.703595e-02                     0.800 (TRAH MAcro)   No
WARNING: 40 diagonal Hessian elements are negative!
WARNING : negative HOMO - LUMO gap : -0.005184
WARNING : negative HOMO - LUMO gap : -0.005184
    9     dE    -1.835015e-04     1.129928e-02    -3.6696e-04      0.011 (TRAH MIcro)
    9     dE    -1.848255e-04     1.123300e-02    -3.6961e-04      0.011 (TRAH MIcro)
    9     dE    -1.928447e-04     1.102542e-02    -3.8562e-04      0.013 (TRAH MIcro)
    9     dE    -2.169810e-04     6.281198e-03    -4.3362e-04      0.028 (TRAH MIcro)
    9     dE    -2.224224e-04     3.329458e-03    -4.4440e-04      0.031 (TRAH MIcro)
   10       -295.301638281832     3.326019e-03                     0.960 (TRAH MAcro)   No
WARNING: 40 diagonal Hessian elements are negative!
WARNING : negative HOMO - LUMO gap : -0.004794
WARNING : negative HOMO - LUMO gap : -0.004794
   10     dE    -5.055701e-03     1.053924e-01    -1.0046e-02      0.960 (TRAH MIcro)
   10     dE    -2.759573e-03     4.363802e-02    -1.2870e-02      0.622 (TRAH MIcro)
   10     dE    -3.308332e-03     3.452701e-02    -1.3576e-02      0.668 (TRAH MIcro)
   10     dE    -3.449570e-03     3.200000e-02    -1.3740e-02      0.679 (TRAH MIcro)
   10     dE    -3.684518e-03     2.515000e-02    -1.4083e-02      0.694 (TRAH MIcro)
   10     dE    -3.962121e-03     7.821871e-03    -1.4487e-02      0.711 (TRAH MIcro)
   10     dE    -3.981380e-03     3.797311e-03    -1.4518e-02      0.712 (TRAH MIcro)
   10     dE    -3.991932e-03     3.314540e-03    -1.4524e-02      0.713 (TRAH MIcro)
   10     dE    -4.007118e-03     2.448242e-03    -1.4531e-02      0.714 (TRAH MIcro)
   10     dE    -4.010089e-03     2.343017e-03    -1.4532e-02      0.714 (TRAH MIcro)
   10     dE    -4.139534e-03     6.438577e-03    -1.4562e-02      0.726 (TRAH MIcro)
   10     dE    -4.150746e-03     7.297910e-03    -1.4569e-02      0.727 (TRAH MIcro)
   10     dE    -4.563469e-03     1.643602e-02    -1.4827e-02      0.758 (TRAH MIcro)
   10     dE    -7.774263e-03     1.510609e-02    -1.6356e-02      0.960 (TRAH MIcro)
   10     dE    -1.088407e-03     3.594559e-03    -1.7152e-02      0.338 (TRAH MIcro)
   10     dE    -8.938249e-04     1.177391e-03    -1.7236e-02      0.301 (TRAH MIcro)
   10     dE    -8.905955e-04     2.697147e-04    -1.7241e-02      0.301 (TRAH MIcro)
 ---------------------------------
          TRAH Step control 
 ---------------------------------
  predicted energy change =    -8.905954852002e-04
  actual energy  change   =     5.786479559788e-03
  energy change ratio     = -6.497315
  old trust radius        = 0.960292
  new trust radius        = 0.643396
  reject step?            = YES
   11       -295.295851802272     3.326019e-03                     0.643 (TRAH MAcro)  Yes
   12       -295.295851802272     9.911110e-02                     0.643 (TRAH MAcro)   No
WARNING: 73 diagonal Hessian elements are negative!
WARNING : negative HOMO - LUMO gap : -0.060925
WARNING : negative HOMO - LUMO gap : -0.060925
   12     dE    -1.499660e-03     9.584032e-02    -2.9928e-03      0.047 (TRAH MIcro)
   12     dE    -2.058131e-03     9.004045e-02    -4.0959e-03      0.071 (TRAH MIcro)
   12     dE    -3.349570e-03     6.600729e-02    -6.6201e-03      0.109 (TRAH MIcro)
   12     dE    -4.075718e-03     2.605560e-02    -7.9908e-03      0.142 (TRAH MIcro)
   12     dE    -4.178589e-03     1.366225e-02    -8.1893e-03      0.143 (TRAH MIcro)
   12     dE    -4.199061e-03     1.051281e-02    -8.2331e-03      0.142 (TRAH MIcro)
   12     dE    -4.214062e-03     1.153837e-02    -8.2778e-03      0.135 (TRAH MIcro)
   12     dE    -4.243234e-03     6.784105e-03    -8.3407e-03      0.132 (TRAH MIcro)
   13       -295.300704790672     2.133643e-02                     0.772 (TRAH MAcro)   No
WARNING: 63 diagonal Hessian elements are negative!
WARNING : negative HOMO - LUMO gap : -0.021519
WARNING : negative HOMO - LUMO gap : -0.021519
   13     dE    -8.855798e-05     2.624322e-02    -1.7708e-04      0.014 (TRAH MIcro)
   13     dE    -1.765382e-04     3.217885e-02    -3.5290e-04      0.022 (TRAH MIcro)
   13     dE    -5.776193e-04     2.469574e-02    -1.1487e-03      0.075 (TRAH MIcro)
   13     dE    -6.103377e-04     2.245117e-02    -1.2134e-03      0.077 (TRAH MIcro)
   13     dE    -6.550799e-04     1.862961e-02    -1.3014e-03      0.082 (TRAH MIcro)
   13     dE    -6.721782e-04     1.829609e-02    -1.3350e-03      0.084 (TRAH MIcro)
   13     dE    -6.882356e-04     1.684896e-02    -1.3657e-03      0.089 (TRAH MIcro)
   13     dE    -7.283525e-04     1.051370e-02    -1.4380e-03      0.114 (TRAH MIcro)
   13     dE    -7.524313e-04     7.515229e-03    -1.4823e-03      0.123 (TRAH MIcro)
   13     dE    -7.574950e-04     5.558641e-03    -1.4916e-03      0.125 (TRAH MIcro)
   13     dE    -7.643218e-04     2.430514e-03    -1.5088e-03      0.115 (TRAH MIcro)
   13     dE    -7.649702e-04     1.558994e-03    -1.5103e-03      0.114 (TRAH MIcro)
   14       -295.301581258722     7.061314e-03                     0.926 (TRAH MAcro)   No
WARNING: 39 diagonal Hessian elements are negative!
WARNING : negative HOMO - LUMO gap : -0.008619
WARNING : negative HOMO - LUMO gap : -0.008619
   14     dE    -3.246286e-06     7.329555e-03    -6.4926e-06      0.002 (TRAH MIcro)
   14     dE    -1.135153e-05     8.045350e-03    -2.2703e-05      0.005 (TRAH MIcro)
   14     dE    -8.954141e-05     8.014690e-03    -1.7885e-04      0.036 (TRAH MIcro)
   14     dE    -9.325565e-05     6.901084e-03    -1.8623e-04      0.039 (TRAH MIcro)
   14     dE    -9.943781e-05     6.017713e-03    -1.9858e-04      0.039 (TRAH MIcro)
   14     dE    -1.011165e-04     6.060420e-03    -2.0193e-04      0.039 (TRAH MIcro)
   14     dE    -1.042497e-04     5.855821e-03    -2.0815e-04      0.041 (TRAH MIcro)
   14     dE    -1.089593e-04     4.741185e-03    -2.1739e-04      0.049 (TRAH MIcro)
   14     dE    -1.105261e-04     4.220784e-03    -2.2043e-04      0.053 (TRAH MIcro)
   14     dE    -1.111875e-04     3.769329e-03    -2.2172e-04      0.054 (TRAH MIcro)
   14     dE    -1.143661e-04     6.882694e-04    -2.2803e-04      0.056 (TRAH MIcro)
   15       -295.301715675120     2.823633e-03                     1.112 (TRAH MAcro)   No
WARNING: 27 diagonal Hessian elements are negative!
WARNING : negative HOMO - LUMO gap : -0.003376
WARNING : negative HOMO - LUMO gap : -0.003376
   15     dE    -6.622655e-07     2.182197e-03    -1.3245e-06      0.001 (TRAH MIcro)
   15     dE    -1.002208e-05     2.711610e-03    -2.0036e-05      0.020 (TRAH MIcro)
   15     dE    -1.096299e-05     2.290345e-03    -2.1915e-05      0.022 (TRAH MIcro)
   15     dE    -1.245984e-05     2.576386e-03    -2.4907e-05      0.023 (TRAH MIcro)
   15     dE    -1.411737e-05     2.757660e-03    -2.8218e-05      0.024 (TRAH MIcro)
   15     dE    -1.564720e-05     2.365157e-03    -3.1274e-05      0.025 (TRAH MIcro)
   15     dE    -1.635596e-05     2.310611e-03    -3.2693e-05      0.024 (TRAH MIcro)
   15     dE    -1.678025e-05     2.146120e-03    -3.3542e-05      0.023 (TRAH MIcro)
   15     dE    -1.699821e-05     1.878521e-03    -3.3979e-05      0.023 (TRAH MIcro)
   15     dE    -1.710731e-05     1.729616e-03    -3.4196e-05      0.023 (TRAH MIcro)
   15     dE    -1.779782e-05     3.471387e-04    -3.5569e-05      0.028 (TRAH MIcro)
   15     dE    -1.782080e-05     3.313504e-04    -3.5614e-05      0.028 (TRAH MIcro)
   15     dE    -1.782665e-05     2.892463e-04    -3.5626e-05      0.028 (TRAH MIcro)
   15     dE    -1.783904e-05     9.499259e-05    -3.5650e-05      0.028 (TRAH MIcro)
   16       -295.301736158299     6.326210e-04                     1.334 (TRAH MAcro)   No
WARNING: 18 diagonal Hessian elements are negative!
WARNING : negative HOMO - LUMO gap : -0.001168
WARNING : negative HOMO - LUMO gap : -0.001168
   16     dE    -2.027426e-08     5.495498e-04    -4.0549e-08      0.000 (TRAH MIcro)
   16     dE    -7.967446e-07     6.429296e-04    -1.5934e-06      0.005 (TRAH MIcro)
   16     dE    -1.102735e-06     8.708246e-04    -2.2054e-06      0.006 (TRAH MIcro)
   16     dE    -1.382908e-06     7.511080e-04    -2.7657e-06      0.008 (TRAH MIcro)
   16     dE    -1.405627e-06     6.836031e-04    -2.8111e-06      0.008 (TRAH MIcro)
   16     dE    -1.419552e-06     6.509892e-04    -2.8389e-06      0.008 (TRAH MIcro)
   16     dE    -1.492537e-06     4.611965e-04    -2.9848e-06      0.009 (TRAH MIcro)
   16     dE    -1.521917e-06     3.376553e-04    -3.0436e-06      0.009 (TRAH MIcro)
   16     dE    -1.544033e-06     1.331598e-04    -3.0878e-06      0.009 (TRAH MIcro)
   16     dE    -1.546457e-06     1.039976e-04    -3.0926e-06      0.010 (TRAH MIcro)
   16     dE    -1.549594e-06     1.035948e-04    -3.0989e-06      0.010 (TRAH MIcro)
   16     dE    -1.551179e-06     8.297985e-05    -3.1021e-06      0.010 (TRAH MIcro)
   16     dE    -1.557776e-06     7.385694e-05    -3.1153e-06      0.010 (TRAH MIcro)
   16     dE    -1.582772e-06     2.517513e-04    -3.1652e-06      0.011 (TRAH MIcro)
   16     dE    -1.681844e-06     5.226657e-04    -3.3629e-06      0.015 (TRAH MIcro)
   16     dE    -1.704076e-06     6.040327e-04    -3.4072e-06      0.016 (TRAH MIcro)
   16     dE    -2.387178e-06     9.457159e-04    -4.7564e-06      0.061 (TRAH MIcro)
   16     dE    -2.681053e-06     2.738452e-04    -5.3265e-06      0.082 (TRAH MIcro)
   16     dE    -2.716971e-06     1.444294e-04    -5.3957e-06      0.084 (TRAH MIcro)
   16     dE    -2.734385e-06     1.171234e-04    -5.4291e-06      0.085 (TRAH MIcro)
   16     dE    -2.740012e-06     8.051090e-05    -5.4399e-06      0.086 (TRAH MIcro)
   16     dE    -2.746242e-06     1.126071e-04    -5.4517e-06      0.086 (TRAH MIcro)
   16     dE    -2.775804e-06     3.318060e-04    -5.5079e-06      0.089 (TRAH MIcro)
 ---------------------------------
          TRAH Step control 
 ---------------------------------
  predicted energy change =    -2.775803990839e-06
  actual energy  change   =     3.342971598386e-05
  energy change ratio     = -12.043255
  old trust radius        = 1.334146
  new trust radius        = 0.893878
  reject step?            = YES
   17       -295.301702728583     6.326210e-04                     0.894 (TRAH MAcro)  Yes
   18       -295.301702728583     1.656570e-02                     0.894 (TRAH MAcro)   No
WARNING: 18 diagonal Hessian elements are negative!
WARNING : negative HOMO - LUMO gap : -0.000622
WARNING : negative HOMO - LUMO gap : -0.000622
   18     dE    -3.725684e-05     8.093855e-04    -7.4512e-05      0.005 (TRAH MIcro)
   19       -295.301740131347     8.170509e-04                     1.073 (TRAH MAcro)   No
WARNING: 26 diagonal Hessian elements are negative!
WARNING : negative HOMO - LUMO gap : -0.000443
WARNING : negative HOMO - LUMO gap : -0.000443
   19     dE    -9.255792e-09     8.105271e-04    -1.8512e-08      0.000 (TRAH MIcro)
   19     dE    -3.094378e-07     5.298697e-04    -6.1886e-07      0.004 (TRAH MIcro)
   19     dE    -3.188259e-07     4.983662e-04    -6.3764e-07      0.005 (TRAH MIcro)
   19     dE    -3.250971e-07     4.882011e-04    -6.5018e-07      0.005 (TRAH MIcro)
   19     dE    -3.282418e-07     4.944788e-04    -6.5647e-07      0.005 (TRAH MIcro)
   19     dE    -3.299027e-07     4.822319e-04    -6.5979e-07      0.005 (TRAH MIcro)
   19     dE    -3.434420e-07     3.918365e-04    -6.8687e-07      0.005 (TRAH MIcro)
   19     dE    -3.572069e-07     2.170828e-04    -7.1439e-07      0.005 (TRAH MIcro)
   19     dE    -3.609027e-07     1.882324e-04    -7.2179e-07      0.005 (TRAH MIcro)
   19     dE    -3.637636e-07     1.511045e-04    -7.2751e-07      0.005 (TRAH MIcro)
   19     dE    -3.651317e-07     1.242256e-04    -7.3024e-07      0.005 (TRAH MIcro)
   19     dE    -3.667772e-07     1.184045e-04    -7.3353e-07      0.005 (TRAH MIcro)
   19     dE    -3.703762e-07     7.093300e-05    -7.4073e-07      0.005 (TRAH MIcro)
   20       -295.301740504054     7.656607e-05                           (NR   MAcro)
WARNING: 27 diagonal Hessian elements are negative!
WARNING : negative HOMO - LUMO gap : -0.000341
   20     dE    -1.389205e-10     7.129304e-05                           (NR   MIcro)
   20     dE    -1.781007e-10     7.028941e-05                           (NR   MIcro)
   20     dE    -2.013821e-10     7.055602e-05                           (NR   MIcro)
   20     dE    -8.231040e-10     7.531224e-05                           (NR   MIcro)
   20     dE    -1.217449e-09     7.830128e-05                           (NR   MIcro)
   20     dE    -2.187308e-09     6.146663e-05                           (NR   MIcro)
   20     dE    -2.290071e-09     5.874516e-05                           (NR   MIcro)
   20     dE    -3.276924e-09     8.418615e-05                           (NR   MIcro)
   20     dE    -7.939378e-09     1.265342e-04                           (NR   MIcro)
   20     dE    -8.691920e-09     1.307801e-04                           (NR   MIcro)
   20     dE    -1.147389e-08     1.751905e-04                           (NR   MIcro)
   20     dE    -1.448965e-08     1.832793e-04                           (NR   MIcro)
   20     dE    -5.381997e-08     2.733580e-04                           (NR   MIcro)
   20     dE    -5.752103e-08     2.790748e-04                           (NR   MIcro)
   20     dE    -1.259236e-07     2.001937e-04                           (NR   MIcro)
   20     dE    -1.511870e-07     1.477788e-04                           (NR   MIcro)
   20     dE    -1.624015e-07     9.889852e-05                           (NR   MIcro)
   20     dE    -1.662050e-07     5.970185e-05                           (NR   MIcro)
   20     dE    -1.706435e-07     1.131884e-04                           (NR   MIcro)
   20     dE    -2.058716e-07     3.738013e-04                           (NR   MIcro)
   20     dE    -6.844099e-07     1.380151e-03                           (NR   MIcro)
   20     dE    -2.668474e-06     3.584093e-03                           (NR   MIcro)
   20     dE     1.225487e-04     4.666345e-02                           (NR   MIcro)
   20     dE     2.239700e-05     1.704182e-03                           (NR   MIcro)
   21       -294.749853464315     1.707337e+00                     1.287 (TRAH MAcro)   No
WARNING: 257 diagonal Hessian elements are negative!
WARNING : negative HOMO - LUMO gap : -0.744677
WARNING : negative HOMO - LUMO gap : -0.744677
   21     dE    -2.639155e+00     1.714522e+00    -2.3925e+00      1.287 (TRAH MIcro)
   21     dE    -1.794304e+00     3.966552e-02    -3.0314e+00      0.963 (TRAH MIcro)
   21     dE    -1.834552e+00     3.439614e-02    -3.0326e+00      0.977 (TRAH MIcro)
   21     dE    -1.843436e+00     5.901023e-03    -3.0328e+00      0.980 (TRAH MIcro)
   22       -295.237993443038     6.485516e-01                     1.287 (TRAH MAcro)   No
WARNING: 86 diagonal Hessian elements are negative!
WARNING : negative HOMO - LUMO gap : -0.205467
WARNING : negative HOMO - LUMO gap : -0.205467
   22     dE    -7.055840e-02     1.690921e-01    -1.3219e-01      0.260 (TRAH MIcro)
   22     dE    -7.271580e-02     1.286214e-01    -1.3609e-01      0.262 (TRAH MIcro)
   22     dE    -7.396712e-02     1.133777e-01    -1.3861e-01      0.259 (TRAH MIcro)
   22     dE    -7.689063e-02     1.269429e-01    -1.4329e-01      0.271 (TRAH MIcro)
   22     dE    -8.778050e-02     1.977494e-01    -1.5603e-01      0.354 (TRAH MIcro)
   22     dE    -1.583329e-01     7.423567e-01    -1.9014e-01      0.816 (TRAH MIcro)
   22     dE    -5.709664e-01     3.358107e-01    -6.0224e-01      1.287 (TRAH MIcro)
   22     dE    -5.999322e-01     1.706195e-01    -6.3998e-01      1.287 (TRAH MIcro)
   22     dE    -6.966061e-02     7.806752e-02    -9.1202e-01      0.195 (TRAH MIcro)
   22     dE    -6.878588e-02     1.592692e-02    -9.2699e-01      0.183 (TRAH MIcro)
   22     dE    -6.870279e-02     3.335468e-03    -9.2776e-01      0.182 (TRAH MIcro)
   23       -295.299050270851     1.011885e-01                     1.545 (TRAH MAcro)   No
WARNING: 63 diagonal Hessian elements are negative!
WARNING : negative HOMO - LUMO gap : -0.012410
WARNING : negative HOMO - LUMO gap : -0.012410
   23     dE    -8.231965e-04     8.349827e-02    -1.6440e-03      0.038 (TRAH MIcro)
   23     dE    -1.355722e-03     6.324116e-02    -2.7059e-03      0.045 (TRAH MIcro)
   23     dE    -1.401381e-03     6.190518e-02    -2.7970e-03      0.045 (TRAH MIcro)
   23     dE    -1.835489e-03     5.339128e-02    -3.6579e-03      0.060 (TRAH MIcro)
   23     dE    -2.352906e-03     2.675386e-02    -4.6576e-03      0.102 (TRAH MIcro)
   23     dE    -2.403379e-03     2.205970e-02    -4.7564e-03      0.103 (TRAH MIcro)
   23     dE    -2.520903e-03     1.329394e-02    -5.0085e-03      0.082 (TRAH MIcro)
   23     dE    -2.529487e-03     1.172910e-02    -5.0254e-03      0.082 (TRAH MIcro)
   23     dE    -2.546857e-03     9.157205e-03    -5.0633e-03      0.077 (TRAH MIcro)
   24       -295.301646813685     1.227547e-02                     1.854 (TRAH MAcro)   No
WARNING: 36 diagonal Hessian elements are negative!
WARNING : negative HOMO - LUMO gap : -0.001911
WARNING : negative HOMO - LUMO gap : -0.001911
   24     dE    -1.871796e-05     9.179262e-03    -3.7435e-05      0.006 (TRAH MIcro)
   24     dE    -2.442284e-05     8.544291e-03    -4.8843e-05      0.007 (TRAH MIcro)
   24     dE    -2.768834e-05     8.960763e-03    -5.5373e-05      0.008 (TRAH MIcro)
   24     dE    -7.348222e-05     6.643671e-03    -1.4661e-04      0.049 (TRAH MIcro)
   24     dE    -7.676199e-05     5.399416e-03    -1.5312e-04      0.051 (TRAH MIcro)
   24     dE    -7.843424e-05     4.529903e-03    -1.5644e-04      0.052 (TRAH MIcro)
   24     dE    -8.090121e-05     3.670382e-03    -1.6142e-04      0.049 (TRAH MIcro)
   24     dE    -8.371700e-05     2.761629e-03    -1.6708e-04      0.046 (TRAH MIcro)
   24     dE    -8.776763e-05     2.469083e-03    -1.7516e-04      0.047 (TRAH MIcro)
   24     dE    -8.802696e-05     2.452999e-03    -1.7567e-04      0.047 (TRAH MIcro)
   24     dE    -9.093612e-05     1.740240e-03    -1.8139e-04      0.051 (TRAH MIcro)
   24     dE    -9.242350e-05     1.905779e-03    -1.8427e-04      0.056 (TRAH MIcro)
   24     dE    -9.425792e-05     1.696068e-03    -1.8785e-04      0.060 (TRAH MIcro)
   24     dE    -9.516738e-05     9.486341e-04    -1.8959e-04      0.063 (TRAH MIcro)
   25       -295.301738929199     2.369735e-03                     2.224 (TRAH MAcro)   No
WARNING: 32 diagonal Hessian elements are negative!
WARNING : negative HOMO - LUMO gap : -0.001050
WARNING : negative HOMO - LUMO gap : -0.001050
   25     dE    -6.490325e-07     1.528679e-03    -1.2981e-06      0.001 (TRAH MIcro)
   25     dE    -9.530169e-07     1.017833e-03    -1.9060e-06      0.001 (TRAH MIcro)
   25     dE    -2.650643e-06     2.109598e-03    -5.3007e-06      0.010 (TRAH MIcro)
   25     dE    -3.317774e-06     1.606231e-03    -6.6343e-06      0.014 (TRAH MIcro)
   25     dE    -3.684752e-06     9.170351e-04    -7.3677e-06      0.016 (TRAH MIcro)
   25     dE    -3.728134e-06     9.236019e-04    -7.4544e-06      0.016 (TRAH MIcro)
   25     dE    -3.779840e-06     9.336045e-04    -7.5578e-06      0.016 (TRAH MIcro)
   25     dE    -3.997421e-06     5.121160e-04    -7.9925e-06      0.017 (TRAH MIcro)
   25     dE    -4.017245e-06     4.710077e-04    -8.0321e-06      0.017 (TRAH MIcro)
   25     dE    -4.172670e-06     5.734732e-04    -8.3427e-06      0.018 (TRAH MIcro)
   25     dE    -4.218083e-06     7.464828e-04    -8.4335e-06      0.018 (TRAH MIcro)
   25     dE    -4.894407e-06     1.453253e-03    -9.7848e-06      0.020 (TRAH MIcro)
   25     dE    -6.508730e-06     9.458175e-04    -1.3010e-05      0.025 (TRAH MIcro)
   25     dE    -7.135825e-06     3.917927e-04    -1.4262e-05      0.026 (TRAH MIcro)
   25     dE    -7.272267e-06     2.670692e-04    -1.4535e-05      0.026 (TRAH MIcro)
   25     dE    -7.345606e-06     2.519278e-04    -1.4682e-05      0.025 (TRAH MIcro)
   25     dE    -7.369647e-06     2.235772e-04    -1.4730e-05      0.025 (TRAH MIcro)
   26       -295.301745975757     5.090048e-04                     2.669 (TRAH MAcro)   No
WARNING: 20 diagonal Hessian elements are negative!
WARNING : negative HOMO - LUMO gap : -0.000431
WARNING : negative HOMO - LUMO gap : -0.000431
   26     dE    -3.281744e-08     2.768332e-04    -6.5635e-08      0.000 (TRAH MIcro)
   26     dE    -2.731740e-07     9.201187e-04    -5.4632e-07      0.007 (TRAH MIcro)
   26     dE    -7.737773e-07     8.631412e-04    -1.5466e-06      0.024 (TRAH MIcro)
   26     dE    -1.212543e-06     1.243279e-03    -2.4190e-06      0.050 (TRAH MIcro)
   26     dE    -1.244078e-06     1.274158e-03    -2.4812e-06      0.053 (TRAH MIcro)
   26     dE    -1.277201e-06     1.289645e-03    -2.5462e-06      0.057 (TRAH MIcro)
   26     dE    -1.317670e-06     1.250166e-03    -2.6261e-06      0.059 (TRAH MIcro)
   26     dE    -1.343928e-06     1.155275e-03    -2.6779e-06      0.061 (TRAH MIcro)
   26     dE    -1.371243e-06     1.036363e-03    -2.7318e-06      0.062 (TRAH MIcro)
   26     dE    -1.463832e-06     5.094831e-04    -2.9139e-06      0.069 (TRAH MIcro)
   26     dE    -1.506960e-06     2.357177e-04    -2.9985e-06      0.072 (TRAH MIcro)
   26     dE    -1.513032e-06     1.808512e-04    -3.0104e-06      0.072 (TRAH MIcro)
   26     dE    -1.514404e-06     1.661301e-04    -3.0131e-06      0.072 (TRAH MIcro)
   26     dE    -1.520404e-06     7.422671e-05    -3.0249e-06      0.073 (TRAH MIcro)
   26     dE    -1.522617e-06     5.512151e-05    -3.0294e-06      0.072 (TRAH MIcro)
   26     dE    -1.522834e-06     4.841811e-05    -3.0299e-06      0.072 (TRAH MIcro)
 ---------------------------------
          TRAH Step control 
 ---------------------------------
  predicted energy change =    -1.522834079941e-06
  actual energy  change   =     1.242157520664e-05
  energy change ratio     = -8.156880
  old trust radius        = 2.669105
  new trust radius        = 1.788300
  reject step?            = YES
   27       -295.301733554181     5.090048e-04                     1.788 (TRAH MAcro)  Yes
   28       -295.301733554181     1.044328e-02                     1.788 (TRAH MAcro)   No
WARNING: 16 diagonal Hessian elements are negative!
WARNING : negative HOMO - LUMO gap : -0.000606
WARNING : negative HOMO - LUMO gap : -0.000606
   28     dE    -1.485467e-05     6.089403e-04    -2.9709e-05      0.003 (TRAH MIcro)
   29       -295.301748446086     6.130394e-04                     2.146 (TRAH MAcro)   No
WARNING: 27 diagonal Hessian elements are negative!
WARNING : negative HOMO - LUMO gap : -0.000761
WARNING : negative HOMO - LUMO gap : -0.000761
   29     dE    -1.141817e-08     6.410385e-04    -2.2836e-08      0.000 (TRAH MIcro)
   29     dE    -1.615952e-07     5.430028e-04    -3.2319e-07      0.003 (TRAH MIcro)
   29     dE    -2.077053e-07     4.145481e-04    -4.1540e-07      0.004 (TRAH MIcro)
   29     dE    -2.250449e-07     3.642792e-04    -4.5008e-07      0.004 (TRAH MIcro)
   29     dE    -2.274486e-07     3.533586e-04    -4.5489e-07      0.004 (TRAH MIcro)
   29     dE    -2.316157e-07     3.353730e-04    -4.6322e-07      0.004 (TRAH MIcro)
   29     dE    -2.544449e-07     1.951291e-04    -5.0888e-07      0.005 (TRAH MIcro)
   29     dE    -2.585091e-07     1.227328e-04    -5.1700e-07      0.006 (TRAH MIcro)
   29     dE    -2.627926e-07     1.383909e-04    -5.2556e-07      0.006 (TRAH MIcro)
   29     dE    -2.683532e-07     9.380550e-05    -5.3668e-07      0.007 (TRAH MIcro)
   29     dE    -2.726100e-07     1.028719e-04    -5.4519e-07      0.008 (TRAH MIcro)
   29     dE    -2.747882e-07     6.321905e-05    -5.4954e-07      0.009 (TRAH MIcro)
   29     dE    -2.826604e-07     1.545731e-04    -5.6526e-07      0.010 (TRAH MIcro)
   29     dE    -2.833970e-07     1.619929e-04    -5.6674e-07      0.010 (TRAH MIcro)
   29     dE    -3.166657e-07     2.916221e-04    -6.3324e-07      0.012 (TRAH MIcro)
   29     dE    -4.503626e-07     5.850049e-04    -9.0052e-07      0.015 (TRAH MIcro)
   29     dE    -6.173312e-07     2.359586e-04    -1.2342e-06      0.020 (TRAH MIcro)
   29     dE    -6.410509e-07     1.838179e-04    -1.2815e-06      0.022 (TRAH MIcro)
   29     dE    -6.853003e-07     3.762275e-04    -1.3698e-06      0.024 (TRAH MIcro)
   29     dE    -8.640693e-07     7.299784e-04    -1.7261e-06      0.034 (TRAH MIcro)
   29     dE    -2.856654e-06     2.624002e-03    -5.6264e-06      0.124 (TRAH MIcro)
   29     dE    -1.100810e-03     2.896161e-02    -4.5614e-04      2.146 (TRAH MIcro)
   29     dE    -2.556353e-03     6.091143e-02    -1.0939e-03      2.146 (TRAH MIcro)
 ---------------------------------
          TRAH Step control 
 ---------------------------------
  predicted energy change =    -2.556353047132e-03
  actual energy  change   =     4.328532067747e-01
  energy change ratio     = -169.324502
  old trust radius        = 2.145960
  new trust radius        = 1.437793
  reject step?            = YES
   30       -294.868895239311     6.130394e-04                     1.438 (TRAH MAcro)  Yes
   31       -294.868895239311     1.542703e+00                     1.438 (TRAH MAcro)   No
WARNING: 229 diagonal Hessian elements are negative!
WARNING : negative HOMO - LUMO gap : -0.511770
WARNING : negative HOMO - LUMO gap : -0.511770
   31     dE    -6.787728e-01     8.345670e-01    -8.8534e-01      0.730 (TRAH MIcro)
   31     dE    -9.184455e-01     9.255092e-01    -9.0965e-01      1.010 (TRAH MIcro)
   31     dE    -1.422005e+00     9.284359e-01    -9.3048e-01      1.438 (TRAH MIcro)
   31     dE    -1.609128e+00     1.088065e+00    -1.1035e+00      1.438 (TRAH MIcro)
   31     dE    -1.599453e+00     7.616955e-01    -1.6079e+00      1.240 (TRAH MIcro)
   31     dE    -4.840453e-01     1.453045e-01    -2.0457e+00      0.466 (TRAH MIcro)
   31     dE    -5.428045e-01     3.069160e-02    -2.0583e+00      0.521 (TRAH MIcro)
   31     dE    -5.356857e-01     1.247124e-02    -2.0587e+00      0.514 (TRAH MIcro)
   31     dE    -5.423308e-01     2.593562e-03    -2.0588e+00      0.520 (TRAH MIcro)
   32       -295.256512787886     3.529821e-01                     1.438 (TRAH MAcro)   No
WARNING: 79 diagonal Hessian elements are negative!
WARNING : negative HOMO - LUMO gap : -0.113645
WARNING : negative HOMO - LUMO gap : -0.113645
[...]
  106     dE    -2.439931e-01     5.703500e-03    -2.4356e+00      0.292 (TRAH MIcro)
  107       -295.446678227075     3.267783e-01                     0.782 (TRAH MAcro)   No
WARNING: 53 diagonal Hessian elements are negative!
WARNING : negative HOMO - LUMO gap : -0.078302
WARNING : negative HOMO - LUMO gap : -0.078302
  107     dE    -1.427578e-02     1.360943e-01    -2.8263e-02      0.101 (TRAH MIcro)
  107     dE    -1.675022e-02     1.096530e-01    -3.2648e-02      0.162 (TRAH MIcro)
  107     dE    -1.791563e-02     9.633153e-02    -3.4690e-02      0.181 (TRAH MIcro)
  107     dE    -1.978003e-02     6.970711e-02    -3.8429e-02      0.172 (TRAH MIcro)
  107     dE    -2.110604e-02     2.195209e-02    -4.1017e-02      0.171 (TRAH MIcro)
  107     dE    -2.113304e-02     1.926416e-02    -4.1064e-02      0.171 (TRAH MIcro)
  107     dE    -2.124054e-02     1.043303e-02    -4.1231e-02      0.174 (TRAH MIcro)
  107     dE    -2.126641e-02     8.324852e-03    -4.1266e-02      0.175 (TRAH MIcro)
  108       -295.468662402747     4.090465e-02                     0.938 (TRAH MAcro)   No
WARNING: 12 diagonal Hessian elements are negative!
WARNING : negative HOMO - LUMO gap : -0.008707
WARNING : negative HOMO - LUMO gap : -0.008707
  108     dE    -8.674010e-05     3.025229e-02    -1.7347e-04      0.008 (TRAH MIcro)
  108     dE    -4.198667e-04     3.229227e-02    -8.3899e-04      0.030 (TRAH MIcro)
  108     dE    -5.710957e-04     3.540701e-02    -1.1381e-03      0.060 (TRAH MIcro)
  108     dE    -9.624848e-04     3.040950e-02    -1.9036e-03      0.106 (TRAH MIcro)
  108     dE    -1.155694e-03     9.564268e-03    -2.2678e-03      0.139 (TRAH MIcro)
  108     dE    -1.161920e-03     8.660271e-03    -2.2801e-03      0.139 (TRAH MIcro)
  108     dE    -1.170137e-03     7.221683e-03    -2.2965e-03      0.138 (TRAH MIcro)
  108     dE    -1.181167e-03     3.317456e-03    -2.3186e-03      0.137 (TRAH MIcro)
  109       -295.469783603474     2.223876e-02                     1.126 (TRAH MAcro)   No
WARNING: 12 diagonal Hessian elements are negative!
WARNING : negative HOMO - LUMO gap : -0.007562
WARNING : negative HOMO - LUMO gap : -0.007562
  109     dE    -5.729114e-05     1.443634e-02    -1.1458e-04      0.007 (TRAH MIcro)
  109     dE    -9.484330e-05     4.200556e-03    -1.8966e-04      0.013 (TRAH MIcro)
  109     dE    -9.786977e-05     2.803555e-03    -1.9571e-04      0.013 (TRAH MIcro)
  109     dE    -1.021593e-04     2.808494e-03    -2.0426e-04      0.017 (TRAH MIcro)
  109     dE    -1.029178e-04     2.427623e-03    -2.0576e-04      0.019 (TRAH MIcro)
  109     dE    -1.041159e-04     9.914969e-04    -2.0813e-04      0.022 (TRAH MIcro)
  110       -295.469888047883     1.076948e-03                     1.351 (TRAH MAcro)   No
WARNING: 6 diagonal Hessian elements are negative!
WARNING : negative HOMO - LUMO gap : -0.005559
WARNING : negative HOMO - LUMO gap : -0.005559
  110     dE    -1.964217e-02     3.566747e-02    -2.1237e-02      1.351 (TRAH MIcro)
  110     dE    -1.969679e-02     3.060938e-02    -2.1297e-02      1.351 (TRAH MIcro)
  110     dE    -1.973869e-02     2.706876e-02    -2.1344e-02      1.351 (TRAH MIcro)
  110     dE    -1.979247e-02     2.166487e-02    -2.1404e-02      1.351 (TRAH MIcro)
  110     dE    -1.986097e-02     1.141685e-02    -2.1478e-02      1.351 (TRAH MIcro)
  110     dE    -1.988216e-02     4.623888e-03    -2.1501e-02      1.351 (TRAH MIcro)
  110     dE    -1.988421e-02     3.131169e-03    -2.1504e-02      1.351 (TRAH MIcro)
  110     dE    -1.988549e-02     1.690834e-03    -2.1505e-02      1.351 (TRAH MIcro)
  110     dE    -1.988589e-02     7.367731e-04    -2.1505e-02      1.351 (TRAH MIcro)
  110     dE    -1.988596e-02     5.975848e-04    -2.1505e-02      1.351 (TRAH MIcro)
  110     dE    -1.988601e-02     7.873484e-05    -2.1506e-02      1.351 (TRAH MIcro)
 ---------------------------------
          TRAH Step control 
 ---------------------------------
  predicted energy change =    -1.988601453898e-02
  actual energy  change   =     4.828193542403e-01
  energy change ratio     = -24.279342
  old trust radius        = 1.351059
  new trust radius        = 0.905209
  reject step?            = YES
  111       -294.987068693642     1.076948e-03                     0.905 (TRAH MAcro)  Yes
  112       -294.987068693642     7.205809e-01                     0.905 (TRAH MAcro)   No
WARNING: 217 diagonal Hessian elements are negative!
WARNING : negative HOMO - LUMO gap : -0.584770
WARNING : negative HOMO - LUMO gap : -0.584770
  112     dE    -1.149615e+00     5.625172e-01    -2.2500e+00      0.905 (TRAH MIcro)
  112     dE    -6.574194e-01     1.137841e-01    -2.5677e+00      0.630 (TRAH MIcro)
  112     dE    -6.761863e-01     2.129415e-02    -2.5752e+00      0.641 (TRAH MIcro)
  112     dE    -6.782009e-01     4.295724e-03    -2.5754e+00      0.642 (TRAH MIcro)
  113       -295.344773250716     3.874770e-01                     0.905 (TRAH MAcro)   No
WARNING: 110 diagonal Hessian elements are negative!
WARNING : negative HOMO - LUMO gap : -0.255292
WARNING : negative HOMO - LUMO gap : -0.255292
  113     dE    -3.874191e-01     4.795171e-01    -6.2006e-01      0.905 (TRAH MIcro)
  113     dE    -4.168028e-01     2.197890e-01    -6.9848e-01      0.905 (TRAH MIcro)
  113     dE    -4.236305e-01     1.093383e-01    -7.2899e-01      0.905 (TRAH MIcro)
  113     dE    -3.270554e-01     6.030265e-02    -7.9977e-01      0.749 (TRAH MIcro)
  113     dE    -3.307179e-01     9.615274e-02    -8.0499e-01      0.752 (TRAH MIcro)
  113     dE    -3.317175e-01     1.390496e-01    -8.1003e-01      0.750 (TRAH MIcro)
  113     dE    -4.570977e-01     3.028437e-01    -8.8721e-01      0.905 (TRAH MIcro)
  113     dE    -1.488504e-01     3.768701e-02    -1.0825e+00      0.400 (TRAH MIcro)
  113     dE    -1.467268e-01     7.929440e-03    -1.0846e+00      0.395 (TRAH MIcro)
  114       -295.445761804691     1.946413e-01                     0.905 (TRAH MAcro)   No
WARNING: 60 diagonal Hessian elements are negative!
WARNING : negative HOMO - LUMO gap : -0.096223
WARNING : negative HOMO - LUMO gap : -0.096223
  114     dE    -4.059597e-02     4.735611e-01    -5.9966e-02      0.595 (TRAH MIcro)
  114     dE    -4.788958e-02     5.193206e-01    -6.5288e-02      0.683 (TRAH MIcro)
  114     dE    -9.049055e-02     5.754502e-01    -1.3607e-01      0.905 (TRAH MIcro)
  114     dE    -9.349137e-02     3.206514e-01    -2.0897e-01      0.799 (TRAH MIcro)
  114     dE    -1.547443e-01     2.235614e-01    -3.0446e-01      0.905 (TRAH MIcro)
  114     dE    -1.508832e-01     6.764041e-02    -3.6454e-01      0.844 (TRAH MIcro)
  114     dE    -1.700115e-01     4.031175e-02    -3.7084e-01      0.896 (TRAH MIcro)
  114     dE    -1.736761e-01     2.274433e-02    -3.7319e-01      0.905 (TRAH MIcro)
  114     dE    -1.738177e-01     8.995801e-03    -3.7479e-01      0.905 (TRAH MIcro)
 ---------------------------------
          TRAH Step control 
 ---------------------------------
  predicted energy change =    -1.738176935818e-01
  actual energy  change   =     2.539226176186e-01
  energy change ratio     = -1.460856
  old trust radius        = 0.905209
  new trust radius        = 0.606490
  reject step?            = YES
  115       -295.191839187072     1.946413e-01                     0.606 (TRAH MAcro)  Yes
  116       -295.191839187072     1.407499e+00                     0.606 (TRAH MAcro)   No
WARNING: 123 diagonal Hessian elements are negative!
WARNING : negative HOMO - LUMO gap : -0.370565
WARNING : negative HOMO - LUMO gap : -0.370565
  116     dE    -3.112630e-01     3.912212e-01    -5.3468e-01      0.405 (TRAH MIcro)
  116     dE    -4.181470e-01     3.225242e-01    -6.2584e-01      0.606 (TRAH MIcro)
  116     dE    -4.320681e-01     2.807652e-01    -7.8291e-01      0.606 (TRAH MIcro)
  116     dE    -4.385610e-01     2.514306e-01    -8.8093e-01      0.606 (TRAH MIcro)
  116     dE    -4.432912e-01     2.685658e-01    -9.4392e-01      0.606 (TRAH MIcro)
  116     dE    -3.018052e-01     2.528500e-02    -1.6103e+00      0.344 (TRAH MIcro)
  116     dE    -3.021343e-01     8.397223e-03    -1.6108e+00      0.345 (TRAH MIcro)
  117       -295.453003498256     2.829615e-01                     0.728 (TRAH MAcro)   No
WARNING: 52 diagonal Hessian elements are negative!
WARNING : negative HOMO - LUMO gap : -0.035831
WARNING : negative HOMO - LUMO gap : -0.035831
  117     dE    -1.187343e-02     7.790003e-02    -2.3559e-02      0.089 (TRAH MIcro)
  117     dE    -1.303852e-02     5.177106e-02    -2.5722e-02      0.118 (TRAH MIcro)
  117     dE    -1.343105e-02     3.307921e-02    -2.6470e-02      0.122 (TRAH MIcro)
  117     dE    -1.356056e-02     2.055109e-02    -2.6709e-02      0.124 (TRAH MIcro)
  117     dE    -1.369534e-02     1.870230e-02    -2.6969e-02      0.125 (TRAH MIcro)
  117     dE    -1.374657e-02     2.064496e-02    -2.7067e-02      0.126 (TRAH MIcro)
  117     dE    -1.391090e-02     2.116144e-02    -2.7328e-02      0.134 (TRAH MIcro)
  117     dE    -1.395760e-02     1.890799e-02    -2.7395e-02      0.138 (TRAH MIcro)
  117     dE    -1.418143e-02     2.645565e-02    -2.7642e-02      0.162 (TRAH MIcro)
  117     dE    -1.429974e-02     2.858802e-02    -2.7752e-02      0.175 (TRAH MIcro)
  117     dE    -1.511190e-02     5.555692e-02    -2.8333e-02      0.258 (TRAH MIcro)
  117     dE    -2.444437e-02     1.388794e-01    -4.6156e-02      0.643 (TRAH MIcro)
  117     dE    -3.277039e-02     8.332966e-02    -6.8737e-02      0.728 (TRAH MIcro)
  117     dE    -1.450359e-02     1.066335e-02    -1.0302e-01      0.159 (TRAH MIcro)
  117     dE    -1.461739e-02     9.086240e-03    -1.0321e-01      0.164 (TRAH MIcro)
  118       -295.466963769607     3.530733e-02                     0.873 (TRAH MAcro)   No
WARNING: 3 diagonal Hessian elements are negative!
WARNING : negative HOMO - LUMO gap : -0.002563
WARNING : negative HOMO - LUMO gap : -0.002563
  118     dE    -2.135926e-04     2.586580e-02    -4.2707e-04      0.017 (TRAH MIcro)
  118     dE    -3.848721e-04     3.517917e-02    -7.6857e-04      0.039 (TRAH MIcro)
  118     dE    -6.971958e-04     6.039647e-02    -1.3811e-03      0.098 (TRAH MIcro)
  118     dE    -1.272546e-03     4.253738e-02    -2.4332e-03      0.214 (TRAH MIcro)
  118     dE    -1.377530e-03     3.886638e-02    -2.6194e-03      0.228 (TRAH MIcro)
  118     dE    -1.883650e-03     2.063453e-02    -3.3975e-03      0.330 (TRAH MIcro)
  118     dE    -2.035167e-03     1.679779e-02    -3.6310e-03      0.348 (TRAH MIcro)
  118     dE    -2.113937e-03     1.485244e-02    -3.7443e-03      0.359 (TRAH MIcro)
  118     dE    -2.251133e-03     1.605503e-02    -3.9684e-03      0.367 (TRAH MIcro)
  118     dE    -2.336869e-03     1.622647e-02    -4.0717e-03      0.385 (TRAH MIcro)
  118     dE    -2.784540e-03     2.593602e-02    -4.4165e-03      0.511 (TRAH MIcro)
  118     dE    -3.235325e-03     1.773535e-02    -4.6526e-03      0.625 (TRAH MIcro)
  118     dE    -3.638199e-03     1.941233e-02    -4.8366e-03      0.710 (TRAH MIcro)
  118     dE    -3.927744e-03     5.266189e-03    -4.9382e-03      0.769 (TRAH MIcro)
  118     dE    -3.936969e-03     3.820265e-03    -4.9414e-03      0.770 (TRAH MIcro)
  118     dE    -3.945409e-03     6.073715e-04    -4.9447e-03      0.772 (TRAH MIcro)
 ---------------------------------
          TRAH Step control 
 ---------------------------------
  predicted energy change =    -3.945409402986e-03
  actual energy  change   =     4.039510860702e-02
  energy change ratio     = -10.238509
  old trust radius        = 0.873346
  new trust radius        = 0.585142
  reject step?            = YES
  119       -295.426568661000     3.530733e-02                     0.585 (TRAH MAcro)  Yes
  120       -295.426568661000     4.558508e-01                     0.585 (TRAH MAcro)   No
WARNING: 80 diagonal Hessian elements are negative!
WARNING : negative HOMO - LUMO gap : -0.101887
WARNING : negative HOMO - LUMO gap : -0.101887
  120     dE    -4.254669e-02     1.026513e-01    -8.1996e-02      0.194 (TRAH MIcro)
  120     dE    -4.530874e-02     8.294618e-02    -8.6357e-02      0.222 (TRAH MIcro)
  120     dE    -5.288273e-02     1.101945e-01    -9.0638e-02      0.409 (TRAH MIcro)
  120     dE    -6.052389e-02     8.774440e-02    -9.4508e-02      0.530 (TRAH MIcro)
  120     dE    -6.499219e-02     5.137134e-02    -1.0740e-01      0.585 (TRAH MIcro)
  120     dE    -6.758245e-02     1.246039e-01    -1.1211e-01      0.585 (TRAH MIcro)
  120     dE    -7.316418e-02     7.722465e-02    -1.4999e-01      0.574 (TRAH MIcro)
  120     dE    -7.491596e-02     5.595143e-02    -1.5256e-01      0.585 (TRAH MIcro)
  120     dE    -7.507813e-02     5.468366e-02    -1.5415e-01      0.585 (TRAH MIcro)
  120     dE    -7.594790e-02     2.884905e-02    -1.6141e-01      0.585 (TRAH MIcro)
  120     dE    -7.635689e-02     2.467857e-02    -1.6346e-01      0.585 (TRAH MIcro)
  120     dE    -5.971701e-02     2.612353e-02    -1.9769e-01      0.390 (TRAH MIcro)
  120     dE    -5.985991e-02     1.716711e-02    -1.9880e-01      0.388 (TRAH MIcro)
  120     dE    -6.040238e-02     2.832360e-02    -1.9926e-01      0.393 (TRAH MIcro)
  120     dE    -4.959434e-02     1.078536e-02    -3.1185e-01      0.249 (TRAH MIcro)
  120     dE    -4.964331e-02     1.181463e-02    -3.1205e-01      0.249 (TRAH MIcro)
  120     dE    -5.100935e-02     1.227984e-02    -3.1280e-01      0.264 (TRAH MIcro)
  120     dE    -5.304835e-02     1.261339e-02    -3.1328e-01      0.287 (TRAH MIcro)
  120     dE    -4.326612e-02     1.529846e-02    -5.9506e-01      0.175 (TRAH MIcro)
  120     dE    -4.333785e-02     2.361116e-03    -5.9568e-01      0.175 (TRAH MIcro)
  121       -295.467328629539     6.718470e-02                     0.585 (TRAH MAcro)   No
WARNING: 14 diagonal Hessian elements are negative!
WARNING : negative HOMO - LUMO gap : -0.016336
WARNING : negative HOMO - LUMO gap : -0.016336
  121     dE    -1.107681e-03     4.009588e-02    -2.2127e-03      0.035 (TRAH MIcro)
  121     dE    -1.336459e-03     4.050140e-02    -2.6673e-03      0.046 (TRAH MIcro)
  121     dE    -1.485894e-03     3.338361e-02    -2.9619e-03      0.058 (TRAH MIcro)
  121     dE    -1.887467e-03     3.831736e-02    -3.7329e-03      0.106 (TRAH MIcro)
  121     dE    -2.252378e-03     2.921547e-02    -4.3811e-03      0.168 (TRAH MIcro)
  121     dE    -2.446340e-03     1.217437e-02    -4.7033e-03      0.201 (TRAH MIcro)
  121     dE    -2.459545e-03     9.599725e-03    -4.7252e-03      0.203 (TRAH MIcro)
  121     dE    -2.472537e-03     4.670297e-03    -4.7496e-03      0.203 (TRAH MIcro)
  122       -295.469627805853     1.708579e-02                     0.702 (TRAH MAcro)   No
WARNING: 4 diagonal Hessian elements are negative!
WARNING : negative HOMO - LUMO gap : -0.002315
WARNING : negative HOMO - LUMO gap : -0.002315
  122     dE    -2.620895e-05     1.329342e-02    -5.2417e-05      0.005 (TRAH MIcro)
  122     dE    -6.695547e-05     7.115028e-03    -1.3388e-04      0.014 (TRAH MIcro)
  122     dE    -1.649142e-04     1.507845e-02    -3.2771e-04      0.080 (TRAH MIcro)
  122     dE    -1.987726e-04     1.766326e-02    -3.9363e-04      0.100 (TRAH MIcro)
  122     dE    -2.666751e-04     1.612358e-02    -5.2125e-04      0.152 (TRAH MIcro)
  122     dE    -3.459095e-04     5.109401e-03    -6.6056e-04      0.218 (TRAH MIcro)
  122     dE    -3.488356e-04     4.113088e-03    -6.6603e-04      0.218 (TRAH MIcro)
  122     dE    -3.525031e-04     1.355261e-03    -6.7326e-04      0.217 (TRAH MIcro)
  123       -295.469751688747     2.956608e-02                     0.702 (TRAH MAcro)   No
WARNING: 5 diagonal Hessian elements are negative!
WARNING : negative HOMO - LUMO gap : -0.005853
WARNING : negative HOMO - LUMO gap : -0.005853
  123     dE    -1.380176e-04     1.035850e-02    -2.7600e-04      0.011 (TRAH MIcro)
  123     dE    -1.450402e-04     8.425431e-03    -2.9004e-04      0.012 (TRAH MIcro)
  123     dE    -1.691004e-04     7.769203e-03    -3.3799e-04      0.025 (TRAH MIcro)
  123     dE    -1.785011e-04     6.132293e-03    -3.5661e-04      0.033 (TRAH MIcro)
  123     dE    -1.867139e-04     3.142343e-03    -3.7277e-04      0.042 (TRAH MIcro)
  123     dE    -1.877221e-04     2.890548e-03    -3.7473e-04      0.044 (TRAH MIcro)
  124       -295.469933816706     3.083535e-03                     0.843 (TRAH MAcro)   No
WARNING: 5 diagonal Hessian elements are negative!
WARNING : negative HOMO - LUMO gap : -0.003832
WARNING : negative HOMO - LUMO gap : -0.003832
  124     dE    -5.392890e-06     4.913610e-03    -1.0785e-05      0.011 (TRAH MIcro)
  124     dE    -5.916033e-06     4.752554e-03    -1.1830e-05      0.012 (TRAH MIcro)
  124     dE    -7.987673e-06     4.678427e-03    -1.5972e-05      0.015 (TRAH MIcro)
  124     dE    -9.548438e-06     4.766741e-03    -1.9091e-05      0.018 (TRAH MIcro)
  124     dE    -2.095606e-05     5.040982e-03    -4.1830e-05      0.044 (TRAH MIcro)
  124     dE    -2.297016e-05     4.857766e-03    -4.5828e-05      0.050 (TRAH MIcro)
  124     dE    -2.569052e-05     4.442937e-03    -5.1215e-05      0.057 (TRAH MIcro)
  124     dE    -3.045292e-05     4.712038e-03    -6.0597e-05      0.071 (TRAH MIcro)
  124     dE    -3.701508e-05     1.222989e-03    -7.3455e-05      0.089 (TRAH MIcro)
  124     dE    -3.716117e-05     1.117426e-03    -7.3739e-05      0.089 (TRAH MIcro)
  124     dE    -3.819686e-05     1.849730e-03    -7.5740e-05      0.093 (TRAH MIcro)
  124     dE    -3.895746e-05     2.391102e-03    -7.7208e-05      0.096 (TRAH MIcro)
  124     dE    -5.808067e-05     1.176767e-02    -1.1320e-04      0.162 (TRAH MIcro)
  124     dE    -1.782729e-03     3.013958e-02    -4.5068e-03      0.843 (TRAH MIcro)
  124     dE    -1.969559e-03     4.707123e-03    -5.0453e-03      0.843 (TRAH MIcro)
  124     dE    -1.972717e-03     1.492910e-03    -5.0544e-03      0.843 (TRAH MIcro)
  124     dE    -1.973011e-03     3.250063e-04    -5.0553e-03      0.843 (TRAH MIcro)
  124     dE    -1.973017e-03     2.700893e-04    -5.0554e-03      0.843 (TRAH MIcro)

               *****************************************************
               *                      ERROR                        *
               *        SCF NOT CONVERGED AFTER 1196 CYCLES         *
               *****************************************************

[file orca_leanscf/orca_leanscf.cpp, line 306, Process 1]: Error (ORCA_LEANSCF): unfortunately, the SCF has not converged. There may be a way out but we have to stop here 
[file orca_leanscf/orca_leanscf.cpp, line 306, Process 2]: Error (ORCA_LEANSCF): unfortunately, the SCF has not converged. There may be a way out but we have to stop here 
[file orca_leanscf/orca_leanscf.cpp, line 306, Process 3]: Error (ORCA_LEANSCF): unfortunately, the SCF has not converged. There may be a way out but we have to stop here 
[file orca_leanscf/orca_leanscf.cpp, line 306, Process 4]: Error (ORCA_LEANSCF): unfortunately, the SCF has not converged. There may be a way out but we have to stop here 
[file orca_leanscf/orca_leanscf.cpp, line 306, Process 5]: Error (ORCA_LEANSCF): unfortunately, the SCF has not converged. There may be a way out but we have to stop here 
[file orca_leanscf/orca_leanscf.cpp, line 306, Process 6]: Error (ORCA_LEANSCF): unfortunately, the SCF has not converged. There may be a way out but we have to stop here 
[file orca_leanscf/orca_leanscf.cpp, line 306, Process 7]: Error (ORCA_LEANSCF): unfortunately, the SCF has not converged. There may be a way out but we have to stop here 
[file orca_leanscf/orca_leanscf.cpp, line 306, Process 0]: Error (ORCA_LEANSCF): unfortunately, the SCF has not converged. There may be a way out but we have to stop here 

ORCA finished by error termination in LEANSCF
Calling Command: mpirun -np 8  /opt/orca/orca_leanscf_mpi trunc_tetrahedron_nn5.00.gbw trunc_tetrahedron_nn5.00 
[file orca_tools/qcmsg.cpp, line 394]: 
  .... aborting the run

