
                                 *****************
                                 * O   R   C   A *
                                 *****************

                                            #,                                       
                                            ###                                      
                                            ####                                     
                                            #####                                    
                                            ######                                   
                                           ########,                                 
                                     ,,################,,,,,                         
                               ,,#################################,,                 
                          ,,##########################################,,             
                       ,#########################################, ''#####,          
                    ,#############################################,,   '####,        
                  ,##################################################,,,,####,       
                ,###########''''           ''''###############################       
              ,#####''   ,,,,##########,,,,          '''####'''          '####       
            ,##' ,,,,###########################,,,                        '##       
           ' ,,###''''                  '''############,,,                           
         ,,##''                                '''############,,,,        ,,,,,,###''
      ,#''                                            '''#######################'''  
     '                                                          ''''####''''         
             ,#######,   #######,   ,#######,      ##                                
            ,#'     '#,  ##    ##  ,#'     '#,    #''#        ,####,    ,#,          
            ##       ##  ##   ,#'  ##            #'  '#       #'       ,# #          
            ##       ##  #######   ##           ,######,      #####,      #          
            '#,     ,#'  ##    ##  '#,     ,#' ,#      #,     #,   #      #          
             '#######'   ##     ##  '#######'  #'      '#     '####' #    #          



                #########################################################
                #                        -***-                          #
                #          Department of theory and spectroscopy        #
                #                                                       #
                #                      Frank Neese                      #
                #                                                       #
                #     Directorship, Architecture, Infrastructure        #
                #                    SHARK, DRIVERS                     #
                #        Core code/Algorithms in most modules           #
                #                                                       #
                #        Max Planck Institute fuer Kohlenforschung      #
                #                Kaiser Wilhelm Platz 1                 #
                #                 D-45470 Muelheim/Ruhr                 #
                #                      Germany                          #
                #                                                       #
                #                  All rights reserved                  #
                #                        -***-                          #
                #########################################################


                         Program Version 6.1.1  -  RELEASE   -
                                (GIT: $487d211c$)
                          ($2025-11-21 10:33:24 +0100$)
                                                                         
                                  - NO-DMRG VERSION -                    
                                                                         


 With contributions from (in alphabetic order):
[Max-Planck-Institut fuer Kohlenforschung]                               
  Daniel Aravena         : Magnetic Suceptibility                        
  Michael Atanasov       : Ab Initio Ligand Field Theory (pilot matlab implementation)
  Alexander A. Auer      : GIAO ZORA, VPT2 properties, NMR spectrum      
  Ute Becker             : All parallelization in ORCA, NUMFREQ, NUMCALC 
  Giovanni Bistoni       : ED, misc. LED, open-shell LED, HFLD           
  Dmytro Bykov           : pre 5.0 version of the SCF Hessian            
  Marcos Casanova-Páez   : Triplet and SCS-CIS(D). UHF-(DLPNO)-IP/EA/STEOM-CCSD. UHF-CVS-IP/STEOM-CCSD   
  Vijay G. Chilkuri      : MRCI spin determinant printing, contributions to CSF-ICE 
  Pauline Colinet        : FMM embedding                                 
  Dipayan Datta          : RHF DLPNO-CCSD density                        
  Achintya Kumar Dutta   : EOM-CC, STEOM-CC                              
  Nicolas Foglia         : Exact transition moments, OPA infrastructure, MCD improvements    
  Dmitry Ganyushin       : Spin-Orbit,Spin-Spin,Magnetic field MRCI      
  Miquel Garcia-Rates    : C-PCM and meta-GGA Hessian, CCSD/C-PCM, Gaussian charge scheme 
  Tiago L. C. Gouveia    : GS-ROHF, GS-ROCIS                             
  Yang Guo               : DLPNO-NEVPT2, F12-NEVPT2, CIM, IAO-localization        
  Andreas Hansen         : Spin unrestricted coupled pair/coupled cluster methods 
  Ingolf Harden          : AUTO-CI MPn and infrastructure                
  Benjamin Helmich-Paris : MC-RPA, TRAH-(SCF,CASSCF), AVAS, COSX integrals, SCF dyn. polar., MC-PDFT, srDFT 
  Lee Huntington         : MR-EOM, pCC                                   
  Robert Izsak           : Overlap fitted RIJCOSX, COSX-SCS-MP3, EOM     
  Riya Kayal             : Wick's Theorem for AUTO-CI, AUTO-CI UHF-CCSDT 
  Emily Kempfer          : AUTO-CI RHF CISDT and CCSDT, approximate NEVPT4
  Christian Kollmar      : KDIIS, OOCD, Brueckner-CCSD(T), CCSD density, CASPT2, CASPT2-K, improved NEVPT2 
  Axel Koslowski         : Symmetry handling                             
  Simone Kossmann        : meta-GGA functionals, TD-DFT gradient, OOMP2, (MP2 Hessian; deprecated post 5.0) 
  Lucas Lang             : DCDCAS, Hyperfine gauge corrections, ICE-SOC+SSC
  Marvin Lechner         : AUTO-CI (C++ implementation), FIC-MRCC        
  Spencer Leger          : CASSCF response                               
  Dagmar Lenk            : GEPOL surface, SMD, ORCA-2-JSON               
  Dimitrios Liakos       : Extrapolation schemes; Compound Job, Property file
  Dimitrios Manganas     : Further ROCIS development; embedding schemes. LFT, Crystal Embedding 
  Dimitrios Pantazis     : SARC Basis sets                               
  Anastasios Papadopoulos: AUTO-CI, single reference methods and gradients 
  Taras Petrenko         : pre 6.0 DFT Hessian and TD-DFT gradient,  ECA, NRVS 
  Petra Pikulova         : Analytic Raman intensities                    
  Peter Pinski           : DLPNO-MP2, DLPNO-MP2 Gradient                 
  Shashank Vittal Rao    : ES-AILFT, MagRelax                            
  Christoph Reimann      : Effective Core Potentials                     
  Marius Retegan         : Local ZFS, SOC                                
  Christoph Riplinger    : Optimizer, TS searches, QM/MM, DLPNO-CCSD(T), (RO)-DLPNO pert. Triples 
  Michael Roemelt        : Original ROCIS implementation, recursive CI coupling coefficients
  Masaaki Saitow         : Open-shell DLPNO-CCSD energy and density      
  Barbara Sandhoefer     : DKH picture change effects                    
  Yorick L. A. Schmerwitz: GMF and freeze-and-release deltaSCF, NEB S-IDPP initial path                    
  Kantharuban Sivalingam : CASSCF convergence/infrastructure, NEVPT2, NEVPT3, NEVPT4(SD), FIC-MRCI and CEPA variants
  Bernardo de Souza      : ESD, SOC TD-DFT                               
  Georgi L. Stoychev     : AutoAux, RI-MP2 NMR, DLPNO-MP2 response, X2C  
  Van Anh Tran           : RI-MP2 g-tensors                              
  Willem Van den Heuvel  : Paramagnetic NMR                              
  Zikuan Wang            : NOTCH, Electric field optimization            
  Frank Wennmohs         : Technical directorship and infrastructure     
  Hang Xu                : AUTO-CI-Response properties                   
                                                                         
[FACCTs GmbH]                                                            
  Markus Bursch, Nicolas Foglia, Miquel Garcia-Rates, Ingolf Harden, Hagen Neugebauer, Anastasios Papadopoulos, 
  Christoph Riplinger, Bernardo de Souza, Georgi L. Stoychev                                                    
                                                                 
  APM, various basis sets, CI-OPT, improved COSX, DLPNO-Multilevel,           
  DOCKER, DRACO, updates on ESD, Fragmentator, GOAT, IRC, LR-CPCM, L-BFGS, MBIS, meta-GGA TD-DFT gradient, ML-optimized integration grids, 
  MM, NACMEs, nearIR, NEB, NEB-TS, NL-DFT gradient (VV10), 2- and 3-layer-ONIOM, interface openCOSMO-RS, QMMM,   
  Crystal-QMMM, RESP, rigid body optimization, SF, symmetry and pop. for TD-DFT, various functionals, SOLVATOR                                   
                                                                         
[Other institutions]                                                     
  V. Asgeirsson          : NEB                                           
  Christoph Bannwarth    : sTDA-DFT, sTD-DFT, PBEh-3c, B97-3c, D3        
  Giovanni Bistoni       : ETS/NOCV, ADLD/ADEX, COVALED                  
  Martin Brehm           : Molecular dynamics                            
  Ronald Cardenas        : ETS/NOCV                                      
  Martina Colucci        : COVALED                                       
  Sebastian Ehlert       : rSCAN, r2SCAN, r2SCAN-3c, D4, dhf basis sets  
  Marvin Friede          : D4 for Fr, Ra, Ac-Lr                          
  Lars Goerigk           : TD-DFT with DH, B97 family of functionals     
  Stefan Grimme          : VdW corrections, initial TS optimization, DFT functionals, gCP, sTDA/sTD-DF 
  Waldemar Hujo          : DFT-NL                                        
  H. Jonsson             : NEB                                           
  Holger Kruse           : gCP                                           
  Marcel Mueller         : wB97X-3c, vDZP basis set                      
  Hagen Neugebauer       : wr2SCAN, Native XTB                           
  Gianluca Regni         : ADLD/ADEX                                     
  Tobias Risthaus        : pre 6.0 range-separated hybrid DFT and stability analysis
  Lukas Wittmann         : regularized MP2, r2SCAN double-hybrids, wr2SCAN        
                                                                         
We gratefully acknowledge several colleagues who have allowed us to      
interface, adapt or use parts of their codes:                            
  Ed Valeev, F. Pavosevic, A. Kumar             : LibInt (2-el integral package), F12 methods 
  Garnet Chan, S. Sharma, J. Yang, R. Olivares  : DMRG                   
  Ulf Ekstrom                                   : XCFun DFT Library      
  Mihaly Kallay                                 : mrcc  (arbitrary order and MRCC methods)
  Frank Weinhold                                : gennbo (NPA and NBO analysis)           
  Simon Mueller                                 : openCOSMO-RS                            
  Christopher J. Cramer and Donald G. Truhlar   : smd solvation model                     
  S Lehtola, MJT Oliveira, MAL Marques          : LibXC Library                           
  Liviu Ungur et al                             : ANISO software                          


 Your calculation uses the libint2 library for the computation of 2-el integrals
 For citations please refer to: http://libint.valeyev.net

 Your ORCA version has been built with support for libXC version: 7.0.0
 For citations please refer to: https://libxc.gitlab.io

 This ORCA versions uses:
   CBLAS   interface :  Fast vector & matrix operations
   LAPACKE interface :  Fast linear algebra routines
   SCALAPACK package :  Parallel linear algebra routines
   Shared memory     :  Shared parallel matrices
   BLAS/LAPACK       :  OpenBLAS 0.3.29  USE64BITINT DYNAMIC_ARCH NO_AFFINITY Zen SINGLE_THREADED
        Core in use  :  Zen
   Copyright (c) 2011-2014, The OpenBLAS Project


  ***********************************
  * Starting time: Fri Apr 24 04:25:08 2026
  * Host name:     vmi3233575
  * Process ID:    1701218
  * Working dir.:  /root/b12_scan/jobs/trunc_tetrahedron_nn1.80
  ***********************************

NOTE: MaxCore=2500 MB was set to SCF,MP2,MDCI,CIPSI,MRCI,RASCI and CIS
      => If you want to overwrite this, your respective input block should be placed after the MaxCore statement
Your calculation utilizes the atom-pairwise dispersion correction
with the Becke-Johnson damping scheme (D3BJ)


================================================================================

----- Orbital basis set information -----
Your calculation utilizes the basis: def2-SVP
   F. Weigend and R. Ahlrichs, Phys. Chem. Chem. Phys. 7, 3297 (2005).

----- AuxJ basis set information -----
Your calculation utilizes the auxiliary basis: def2/J
   H-Rn: F. Weigend, Phys. Chem. Chem. Phys. 8, 1057 (2006).
   Fr-Lr: K. Eichkorn, F. Weigend, O. Treutler, R. Ahlrichs; Theor. Chem. Acc. 97, 119 (1997).

================================================================================
                                        WARNINGS
                       Please study these warnings very carefully!
================================================================================


WARNING: Geometry Optimization
  ===> : Switching off AutoStart
         For restart on a previous wavefunction, please use MOREAD

================================================================================
                                       INPUT FILE
================================================================================
NAME = trunc_tetrahedron_nn1.80.inp
|  1> ! BP86 def2-SVP def2/J RI Opt TightSCF D3BJ
|  2> ! SlowConv
|  3> 
|  4> %pal nprocs 8 end
|  5> %maxcore 2500
|  6> 
|  7> %geom
|  8>   MaxIter 300
|  9> end
| 10> 
| 11> * xyz 0 1
| 12> B     -2.12132034     -0.42426407      0.00000000
| 13> B     -2.12132034      0.84852814     -1.27279221
| 14> B     -2.12132034      0.84852814      1.27279221
| 15> B     -2.12132034      2.12132034      0.00000000
| 16> B      0.42426407     -2.96984848      0.00000000
| 17> B      0.42426407      0.84852814     -3.81837662
| 18> B      0.42426407      0.84852814      3.81837662
| 19> B      0.42426407      4.66690476      0.00000000
| 20> B      1.69705627     -2.96984848     -1.27279221
| 21> B      1.69705627     -2.96984848      1.27279221
| 22> B      1.69705627     -0.42426407     -3.81837662
| 23> B      1.69705627     -0.42426407      3.81837662
| 24> *
| 25> 
| 26>                          ****END OF INPUT****
================================================================================

                       *****************************
                       * Geometry Optimization Run *
                       *****************************

Geometry optimization settings:
Update method            Update   .... BFGS
Choice of coordinates    CoordSys .... (2022) Redundant Internals
Initial Hessian          InHess   .... Almloef's Model
Max. no of cycles        MaxIter  .... 300

Convergence Tolerances:
Energy Change            TolE     ....  5.0000e-06 Eh
Max. Gradient            TolMAXG  ....  3.0000e-04 Eh/bohr
RMS Gradient             TolRMSG  ....  1.0000e-04 Eh/bohr
Max. Displacement        TolMAXD  ....  4.0000e-03 bohr
RMS Displacement         TolRMSD  ....  2.0000e-03 bohr
Strict Convergence                .... False

------------------------------------------------------------------------------
                        ORCA OPTIMIZATION COORDINATE SETUP
------------------------------------------------------------------------------

The optimization will be done in redundant internal coordinates (2022)
Making redundant internal coordinates   ...  (2022 redundants) done
Evaluating the initial hessian          ...  (Almloef) done
Evaluating the coordinates              ...  done
Calculating the B-matrix                .... done
Calculating the G-matrix                .... done
The number of degrees of freedom        ....   67

    -----------------------------------------------------------------
                    Redundant Internal Coordinates


    -----------------------------------------------------------------
         Definition                    Initial Value    Approx d2E/dq
    -----------------------------------------------------------------
      1. B(B   1,B   0)                  1.8000         0.185885   
      2. B(B   2,B   0)                  1.8000         0.185885   
      3. B(B   3,B   1)                  1.8000         0.185885   
      4. B(B   3,B   2)                  1.8000         0.185885   
      5. B(B   4,B   0)                  3.6000         0.010000   
      6. B(B   5,B   1)                  3.6000         0.010000   
      7. B(B   6,B   2)                  3.6000         0.010000   
      8. B(B   7,B   3)                  3.6000         0.010000   
      9. B(B   8,B   4)                  1.8000         0.185885   
     10. B(B   9,B   4)                  1.8000         0.185885   
     11. B(B  10,B   5)                  1.8000         0.185885   
     12. B(B  10,B   8)                  3.6000         0.010000   
     13. B(B  11,B   9)                  3.6000         0.010000   
     14. B(B  11,B   6)                  1.8000         0.185885   
     15. A(B   2,B   0,B   4)          120.0000         0.135727   
     16. A(B   1,B   0,B   2)           90.0000         0.297719   
     17. A(B   1,B   0,B   4)          120.0000         0.135727   
     18. A(B   0,B   1,B   3)           90.0000         0.297719   
     19. A(B   0,B   1,B   5)          120.0000         0.135727   
     20. A(B   3,B   1,B   5)          120.0000         0.135727   
     21. A(B   0,B   2,B   3)           90.0000         0.297719   
     22. A(B   3,B   2,B   6)          120.0000         0.135727   
     23. A(B   0,B   2,B   6)          120.0000         0.135727   
     24. A(B   2,B   3,B   7)          120.0000         0.135727   
     25. A(B   1,B   3,B   7)          120.0000         0.135727   
     26. A(B   1,B   3,B   2)           90.0000         0.297719   
     27. A(B   0,B   4,B   9)          120.0000         0.135727   
     28. A(B   8,B   4,B   9)           90.0000         0.297719   
     29. A(B   0,B   4,B   8)          120.0000         0.135727   
     30. A(B   1,B   5,B  10)          120.0000         0.135727   
     31. A(B   2,B   6,B  11)          120.0000         0.135727   
     32. A(B   4,B   8,B  10)          120.0000         0.135727   
     33. A(B   4,B   9,B  11)          120.0000         0.135727   
     34. A(B   5,B  10,B   8)          120.0000         0.135727   
     35. A(B   6,B  11,B   9)          120.0000         0.135727   
     36. D(B   3,B   1,B   0,B   2)      0.0000         0.010000   
     37. D(B   3,B   1,B   0,B   4)   -125.2644         0.010000   
     38. D(B   5,B   1,B   0,B   2)    125.2644         0.010000   
     39. D(B   5,B   1,B   0,B   4)     -0.0000         0.010000   
     40. D(B   3,B   2,B   0,B   4)    125.2644         0.010000   
     41. D(B   3,B   2,B   0,B   1)      0.0000         0.010000   
     42. D(B   6,B   2,B   0,B   4)      0.0000         0.010000   
     43. D(B   6,B   2,B   0,B   1)   -125.2644         0.010000   
     44. D(B   1,B   3,B   2,B   6)    125.2644         0.010000   
     45. D(B   1,B   3,B   2,B   0)      0.0000         0.010000   
     46. D(B   7,B   3,B   1,B   5)      0.0000         0.010000   
     47. D(B   7,B   3,B   1,B   0)    125.2644         0.010000   
     48. D(B   2,B   3,B   1,B   5)   -125.2644         0.010000   
     49. D(B   7,B   3,B   2,B   0)   -125.2644         0.010000   
     50. D(B   2,B   3,B   1,B   0)      0.0000         0.010000   
     51. D(B   7,B   3,B   2,B   6)     -0.0000         0.010000   
     52. D(B   9,B   4,B   0,B   2)      0.0000         0.010000   
     53. D(B   9,B   4,B   0,B   1)    109.4712         0.010000   
     54. D(B   8,B   4,B   0,B   2)   -109.4712         0.010000   
     55. D(B   8,B   4,B   0,B   1)     -0.0000         0.010000   
     56. D(B  10,B   5,B   1,B   3)    109.4712         0.010000   
     57. D(B  10,B   5,B   1,B   0)      0.0000         0.010000   
     58. D(B  11,B   6,B   2,B   3)   -109.4712         0.010000   
     59. D(B  11,B   6,B   2,B   0)     -0.0000         0.010000   
     60. D(B  10,B   8,B   4,B   0)      0.0000         0.010000   
     61. D(B  10,B   8,B   4,B   9)   -125.2644         0.010000   
     62. D(B  11,B   9,B   4,B   0)     -0.0000         0.010000   
     63. D(B  11,B   9,B   4,B   8)    125.2644         0.010000   
     64. D(B   5,B  10,B   8,B   4)     -0.0000         0.010000   
     65. D(B   8,B  10,B   5,B   1)     -0.0000         0.010000   
     66. D(B   9,B  11,B   6,B   2)      0.0000         0.010000   
     67. D(B   6,B  11,B   9,B   4)      0.0000         0.010000   
    -----------------------------------------------------------------

Number of atoms                         .... 12
Number of degrees of freedom            .... 67


         *************************************************************
         *                GEOMETRY OPTIMIZATION CYCLE   1            *
         *************************************************************
---------------------------------
CARTESIAN COORDINATES (ANGSTROEM)
---------------------------------
  B     -2.121320   -0.424264    0.000000
  B     -2.121320    0.848528   -1.272792
  B     -2.121320    0.848528    1.272792
  B     -2.121320    2.121320    0.000000
  B      0.424264   -2.969848    0.000000
  B      0.424264    0.848528   -3.818377
  B      0.424264    0.848528    3.818377
  B      0.424264    4.666905    0.000000
  B      1.697056   -2.969848   -1.272792
  B      1.697056   -2.969848    1.272792
  B      1.697056   -0.424264   -3.818377
  B      1.697056   -0.424264    3.818377

----------------------------
CARTESIAN COORDINATES (A.U.)
----------------------------
  NO LB      ZA    FRAG     MASS         X           Y           Z
   0 B     5.0000    0    10.810   -4.008714   -0.801743    0.000000
   1 B     5.0000    0    10.810   -4.008714    1.603486   -2.405229
   2 B     5.0000    0    10.810   -4.008714    1.603486    2.405229
   3 B     5.0000    0    10.810   -4.008714    4.008714    0.000000
   4 B     5.0000    0    10.810    0.801743   -5.612200    0.000000
   5 B     5.0000    0    10.810    0.801743    1.603486   -7.215686
   6 B     5.0000    0    10.810    0.801743    1.603486    7.215686
   7 B     5.0000    0    10.810    0.801743    8.819172    0.000000
   8 B     5.0000    0    10.810    3.206972   -5.612200   -2.405229
   9 B     5.0000    0    10.810    3.206972   -5.612200    2.405229
  10 B     5.0000    0    10.810    3.206972   -0.801743   -7.215686
  11 B     5.0000    0    10.810    3.206972   -0.801743    7.215686

--------------------------------
INTERNAL COORDINATES (ANGSTROEM)
--------------------------------
 B      0   0   0     0.000000000000     0.00000000     0.00000000
 B      1   0   0     1.800000005465     0.00000000     0.00000000
 B      1   2   0     1.800000005465    90.00000000     0.00000000
 B      2   1   3     1.799999998394    89.99999977     0.00000000
 B      1   2   3     3.599999996788   120.00000000   234.73561032
 B      2   1   3     3.599999996788   120.00000000   125.26438968
 B      3   1   2     3.599999996788   120.00000000   234.73561032
 B      4   2   1     3.600000003859   119.99999994   125.26438989
 B      5   1   2     1.799999998394   119.99999987     0.00000000
 B      5   1   2     1.799999998394   119.99999987   109.47122085
 B      6   2   1     1.799999998394   119.99999987     0.00000000
 B      7   3   1     1.799999998394   119.99999987     0.00000000

---------------------------
INTERNAL COORDINATES (A.U.)
---------------------------
 B      0   0   0     0.000000000000     0.00000000     0.00000000
 B      1   0   0     3.401507051385     0.00000000     0.00000000
 B      1   2   0     3.401507051385    90.00000000     0.00000000
 B      2   1   3     3.401507038023    89.99999977     0.00000000
 B      1   2   3     6.803014076046   120.00000000   234.73561032
 B      2   1   3     6.803014076046   120.00000000   125.26438968
 B      3   1   2     6.803014076046   120.00000000   234.73561032
 B      4   2   1     6.803014089408   119.99999994   125.26438989
 B      5   1   2     3.401507038023   119.99999987     0.00000000
 B      5   1   2     3.401507038023   119.99999987   109.47122085
 B      6   2   1     3.401507038023   119.99999987     0.00000000
 B      7   3   1     3.401507038023   119.99999987     0.00000000

---------------------
BASIS SET INFORMATION
---------------------
There are 1 groups of distinct atoms

 Group   1 Type B   : 7s4p1d contracted to 3s2p1d pattern {511/31/1}

Atom   0B    basis set group =>   1
Atom   1B    basis set group =>   1
Atom   2B    basis set group =>   1
Atom   3B    basis set group =>   1
Atom   4B    basis set group =>   1
Atom   5B    basis set group =>   1
Atom   6B    basis set group =>   1
Atom   7B    basis set group =>   1
Atom   8B    basis set group =>   1
Atom   9B    basis set group =>   1
Atom  10B    basis set group =>   1
Atom  11B    basis set group =>   1
---------------------------------
AUXILIARY/J BASIS SET INFORMATION
---------------------------------
There are 1 groups of distinct atoms

 Group   1 Type B   : 12s5p4d2f1g contracted to 6s4p3d1f1g pattern {711111/2111/211/2/1}

Atom   0B    basis set group =>   1
Atom   1B    basis set group =>   1
Atom   2B    basis set group =>   1
Atom   3B    basis set group =>   1
Atom   4B    basis set group =>   1
Atom   5B    basis set group =>   1
Atom   6B    basis set group =>   1
Atom   7B    basis set group =>   1
Atom   8B    basis set group =>   1
Atom   9B    basis set group =>   1
Atom  10B    basis set group =>   1
Atom  11B    basis set group =>   1


           ************************************************************
           *        Program running with 8 parallel MPI-processes     *
           *              working on a common directory               *
           ************************************************************
------------------------------------------------------------------------------
                             ORCA STARTUP CALCULATIONS
                           -- RI-GTO INTEGRALS CHOSEN --
------------------------------------------------------------------------------
------------------------------------------------------------------------------
                   ___                                                        
                  /   \      - P O W E R E D   B Y -                         
                 /     \                                                     
                 |  |  |   _    _      __       _____    __    __             
                 |  |  |  | |  | |    /  \     |  _  \  |  |  /  |          
                  \  \/   | |  | |   /    \    | | | |  |  | /  /          
                 / \  \   | |__| |  /  /\  \   | |_| |  |  |/  /          
                |  |  |   |  __  | /  /__\  \  |    /   |      \           
                |  |  |   | |  | | |   __   |  |    \   |  |\   \          
                \     /   | |  | | |  |  |  |  | |\  \  |  | \   \       
                 \___/    |_|  |_| |__|  |__|  |_| \__\ |__|  \__/        
                                                                              
                      - O R C A' S   B I G   F R I E N D -                    
                                      &                                       
                       - I N T E G R A L  F E E D E R -                       
                                                                              
 v1 FN, 2020, v2 2021, v3 2022-2024                                           
------------------------------------------------------------------------------


----------------------
SHARK INTEGRAL PACKAGE
----------------------

Number of atoms                             ...     12
Number of basis functions                   ...    168
Number of shells                            ...     72
Maximum angular momentum                    ...      2
Integral batch strategy                     ... SHARK/LIBINT Hybrid
RI-J (if used) integral strategy            ... SPLIT-RIJ (Revised 2003 algorithm where possible)
Printlevel                                  ...      1
Contraction scheme used                     ... SEGMENTED contraction
Prescreening option                         ... SCHWARTZ
   Thresh                                   ... 2.500e-11
   Tcut                                     ... 2.500e-12
   Tpresel                                  ... 2.500e-12 
Coulomb Range Separation                    ... NOT USED
Exchange Range Separation                   ... NOT USED
Multipole approximations                    ... NOT USED
Finite Nucleus Model                        ... NOT USED
CABS basis                                  ... NOT available
Auxiliary Coulomb fitting basis             ... AVAILABLE
   # of basis functions in Aux-J            ...    588
   # of shells in Aux-J                     ...    180
   Maximum angular momentum in Aux-J        ...      4
Auxiliary J/K fitting basis                 ... NOT available
Auxiliary Correlation fitting basis         ... NOT available
Auxiliary 'external' fitting basis          ... NOT available

Checking pre-screening integrals            ... done (  0.0 sec) Dimension = 72
   => SHARK Basis and OBASIS are compatible. Storing Pre-screening
Shell pair information
Shell pair cut-off parameter TPreSel        ...   2.5e-12
Total number of shell pairs                 ...      2628
Shell pairs after pre-screening             ...      2288
Total number of primitive shell pairs       ...     10596
Primitive shell pairs kept                  ...      6015
          la=0 lb=0:    554 shell pairs
          la=1 lb=0:    784 shell pairs
          la=1 lb=1:    293 shell pairs
          la=2 lb=0:    320 shell pairs
          la=2 lb=1:    274 shell pairs
          la=2 lb=2:     63 shell pairs

Checking whether 4 symmetric matrices of dimension 168 fit in memory
:Max Core in MB      =   2500.00
 MB in use           =      6.31
 MB left             =   2493.69
 MB needed           =      0.43
 Data fit in memory  = YES
Calculating RI/J V-Matrix + Cholesky decomp.... done (  0.1 sec)
Calculating Nuclear repulsion               ... done (  0.0 sec) ENN=    211.541536637423 Eh

Diagonalization of the overlap matrix:
Smallest eigenvalue                        ... 7.014e-04
Time for diagonalization                   ...    0.003 sec
Threshold for overlap eigenvalues          ... 1.000e-07
Number of eigenvalues below threshold      ... 0
Time for construction of square roots      ...    0.002 sec
Total time needed                          ...    0.007 sec

-------------------
DFT GRID GENERATION
-------------------

General Integration Accuracy     IntAcc      ... 4.388
Radial Grid Type                 RadialGrid  ... OptM3 with GC (2021)
Angular Grid (max. ang.)         AngularGrid ... 4 (Lebedev-302)
Angular grid pruning method      GridPruning ... 4 (adaptive)
Weight generation scheme         WeightScheme... mBecke (2022)
Basis function cutoff            BFCut       ... 1.0000e-11
Integration weight cutoff        WCut        ... 1.0000e-14
Partially contracted basis set               ... off
Rotationally invariant grid construction     ... off
Angular grids for H and He will be reduced by one unit

Total number of grid points                  ...    73076
Total number of batches                      ...     1147
Average number of points per batch           ...       63
Average number of grid points per atom       ...     6090
Grids setup in   0.9 sec
Initializing property integral containers    ... done (  0.0 sec)

SHARK setup successfully completed in   1.2 seconds

Maximum memory used throughout the entire STARTUP-calculation: 19.5 MB


           ************************************************************
           *        Program running with 8 parallel MPI-processes     *
           *              working on a common directory               *
           ************************************************************
-------------------------------------------------------------------------------
                                 ORCA GUESS
                   Start orbitals & Density for SCF / CASSCF
-------------------------------------------------------------------------------

------------
SCF SETTINGS
------------
Hamiltonian:
 Density Functional     Method          .... DFT(GTOs)
 Exchange Functional    Exchange        .... B88
   X-Alpha parameter    XAlpha          ....  0.666667
   Becke's b parameter  XBeta           ....  0.004200
 Correlation Functional Correlation     .... P86
 LDA part of GGA corr.  LDAOpt          .... PW91-LDA
 Gradients option       PostSCFGGA      .... off
   NL short-range parameter             ....  4.400000
 RI-approximation to the Coulomb term is turned on
   Number of AuxJ basis functions       .... 588


General Settings:
 Integral files         IntName         .... trunc_tetrahedron_nn1.80
 Hartree-Fock type      HFTyp           .... RHF
 Total Charge           Charge          ....    0
 Multiplicity           Mult            ....    1
 Number of Electrons    NEL             ....   60
 Basis Dimension        Dim             ....  168
 Nuclear Repulsion      ENuc            ....    211.5415366374 Eh

Convergence Acceleration:
 AO-DIIS                CNVDIIS         .... on
   Start iteration      DIISMaxIt       ....     0
   Startup error        DIISStart       ....  0.200000
   # of expansion vecs  DIISMaxEq       ....     5
   Bias factor          DIISBfac        ....   1.050
   Max. coefficient     DIISMaxC        ....  10.000
 MO-DIIS                CNVKDIIS        .... off
 Trust-Rad. Augm. Hess. CNVTRAH         .... auto
   Auto Start mean grad. ratio tolernc. ....  1.125000
   Auto Start start iteration           ....    50
   Auto Start num. interpolation iter.  ....    10
   Max. Number of Micro iterations      ....    24
   Max. Number of Macro iterations      .... Maxiter - #DIIS iter
   Number of Davidson start vectors     ....     2
   Converg. threshold    (grad. norm)   ....   1.000e-05
   Grad. Scal. Fac. for Micro threshold ....   0.100
   Minimum threshold for Micro iter.    ....   1.000e-02
   NR start threshold (gradient norm)   ....   1.000e-04
   Initial trust radius                 ....   0.400
   Minimum AH scaling param. (alpha)    ....   1.000
   Maximum AH scaling param. (alpha)    .... 1000.000
   Quad. conv. algorithm                .... NR
   White noise on init. David. guess    .... on
   Maximum white noise                  ....   0.010
   Pseudo random numbers                .... off
   Inactive MOs                         .... canonical
   Orbital update algorithm             .... Taylor
   Preconditioner                       .... Diag
   Full preconditioner red. dimension   ....   250
 SOSCF                 CNVSOSCF           .... on
   Start iteration     SOSCFMaxIt         ....   150
   Startup grad/error  SOSCFStart         ....  0.001000
   Hessian update      SOSCFHessUp        .... L-BFGS
   Autom. constraints  SOSCFAutoConstrain .... off
 Level Shifting         CNVShift        .... on
   Level shift para.    LevelShift      ....    0.2500
   Turn off err/grad.   ShiftErr        ....    0.0000
 Zerner damping         CNVZerner       .... off
 Static damping         CNVDamp         .... on
   Fraction old density DampFac         ....    0.8500
   Max. Damping (<1)    DampMax         ....    0.9800
   Min. Damping (>=0)   DampMin         ....    0.0000
   Turn off err/grad.   DampErr         ....    0.0300

SCF Procedure:
 Maximum # iterations   MaxIter         ....   125
 SCF integral mode      SCFMode         .... Direct
   Integral package                     .... SHARK and LIBINT hybrid scheme
 Reset frequency        DirectResetFreq ....    20
 Integral Threshold     Thresh          ....  2.500e-11 Eh
 Primitive CutOff       TCut            ....  2.500e-12 Eh

Convergence Tolerance:
 Convergence Check Mode ConvCheckMode   .... Total+1el-Energy
 Convergence forced     ConvForced      .... 0
 Energy Change          TolE            ....  1.000e-08 Eh
 1-El. energy change                    ....  1.000e-05 Eh
 Orbital Gradient       TolG            ....  1.000e-05
 Orbital Rotation angle TolX            ....  1.000e-05
 DIIS Error             TolErr          ....  5.000e-07

------------------------------
INITIAL GUESS: MODEL POTENTIAL
------------------------------
Loading Hartree-Fock densities                     ... done
Calculating cut-offs                               ... done
Initializing the effective Hamiltonian             ... done
Setting up the integral package (SHARK)            ... done
Starting the Coulomb interaction                   ... done (   0.1 sec)
Making the grid                                    ... done (   0.2 sec)
Mapping shells                                     ... done
Starting the XC term evaluation                    ... done (   0.0 sec)
  promolecular density results
     # of electrons  =     60.002134291
     EX              =    -44.704573371
     EC              =     -1.746016401
     EX+EC           =    -46.450589771
Transforming the Hamiltonian                       ... done (   0.1 sec)
Diagonalizing the Hamiltonian                      ... done (   0.0 sec)
Back transforming the eigenvectors                 ... done (   0.1 sec)
Now organizing SCF variables                       ... done
                      ------------------
                      INITIAL GUESS DONE (   0.6 sec)
                      ------------------
             **** ENERGY FILE WAS UPDATED (trunc_tetrahedron_nn1.80.en.tmp) ****
Finished Guess after   1.2 sec
Maximum memory used throughout the entire GUESS-calculation: 9.0 MB


           ************************************************************
           *        Program running with 8 parallel MPI-processes     *
           *              working on a common directory               *
           ************************************************************

-------------------------------------------------------------------------------------------
                                      ORCA LEAN-SCF
                              memory conserving SCF solver
-------------------------------------------------------------------------------------------

----------------------------------------D-I-I-S--------------------------------------------
Iteration    Energy (Eh)           Delta-E    RMSDP     MaxDP     DIISErr   Damp  Time(sec)
-------------------------------------------------------------------------------------------
               ***  Starting incremental Fock matrix formation  ***
    1    -295.0840316525774369     0.00e+00  2.12e-02  2.03e-01  2.30e-01  0.850   0.3
Warning: op=0 Small HOMO/LUMO gap (  -0.297) - skipping pre-diagonalization
         LevelShift set to 0.397 Eh
         Will do a full diagonalization
    2    -295.8444631161167990    -7.60e-01  1.48e-02  1.06e-01  8.22e-02  0.850   0.5
                               ***Turning on AO-DIIS***
    3    -295.2235744514214275     6.21e-01  1.12e-02  7.39e-02  8.54e-02  0.850   0.5
    4    -294.2730814827833683     9.50e-01  8.84e-03  6.02e-02  1.50e-01  0.850   0.4
    5    -293.4089620340831743     8.64e-01  7.21e-03  4.83e-02  1.98e-01  0.850   0.3
    6    -292.7712658720341778     6.38e-01  6.05e-03  3.79e-02  2.26e-01  0.850   0.4
    7    -292.4301314945327022     3.41e-01  5.82e-03  3.50e-02  2.37e-01  0.850   0.7
    8    -292.5167282792863261    -8.66e-02  7.55e-03  5.66e-02  2.37e-01  0.850   0.4
    9    -293.0518331354312522    -5.35e-01  1.35e-02  1.02e-01  2.19e-01  0.850   0.3
   10    -294.6027011469064973    -1.55e+00  1.13e-02  9.03e-02  1.35e-01  0.850   0.5
   11    -295.4088197434365384    -8.06e-01  8.77e-03  5.86e-02  7.20e-02  0.850   0.3
   12    -295.6983876129514783    -2.90e-01  6.94e-03  4.38e-02  3.80e-02  0.850   0.3
   13    -295.7249255342602510    -2.65e-02  5.69e-03  4.10e-02  4.83e-02  0.850   0.3
   14    -295.6348806735045400     9.00e-02  4.81e-03  3.42e-02  6.71e-02  0.850   0.3
   15    -295.5049386974426398     1.30e-01  4.19e-03  2.65e-02  9.10e-02  0.850   0.5
   16    -295.3741354953432392     1.31e-01  3.78e-03  1.94e-02  1.08e-01  0.850   0.3
   17    -295.2600878756901466     1.14e-01  3.52e-03  1.85e-02  1.23e-01  0.850   0.3
   18    -295.1711054418963158     8.90e-02  3.55e-03  2.22e-02  1.35e-01  0.850   0.4
   19    -295.1237867444599487     4.73e-02  4.06e-03  2.84e-02  1.42e-01  0.850   0.3
   20    -295.1513480464550412    -2.76e-02  5.79e-03  3.88e-02  1.50e-01  0.850   0.2
               *** Restarting incremental Fock matrix formation ***
                             ****Resetting DIIS****
Warning: op=0 Small HOMO/LUMO gap (  -0.558) - skipping pre-diagonalization
         LevelShift set to 0.658 Eh
         Will do a full diagonalization
   21    -295.3644059913433466    -2.13e-01  1.05e-02  7.09e-02  1.46e-01  0.850   0.3
   22    -295.8324841133249947    -4.68e-01  8.35e-03  6.47e-02  9.35e-02  0.850   0.2
   23    -296.0337584944068112    -2.01e-01  6.85e-03  5.41e-02  7.94e-02  0.850   0.2
   24    -296.0793316494747387    -4.56e-02  5.85e-03  4.39e-02  6.05e-02  0.850   0.2
   25    -296.0442871851211066     3.50e-02  5.12e-03  3.61e-02  5.03e-02  0.850   0.3
   26    -295.9696213378124412     7.47e-02  4.52e-03  3.64e-02  7.11e-02  0.850   0.2
   27    -295.8766700320023801     9.30e-02  4.04e-03  3.73e-02  8.63e-02  0.850   0.3
   28    -295.7773535757154377     9.93e-02  3.67e-03  3.83e-02  9.69e-02  0.850   0.3
   29    -295.6800205088647999     9.73e-02  3.49e-03  4.05e-02  1.04e-01  0.850   0.2
   30    -295.5960136404811465     8.40e-02  3.54e-03  4.24e-02  1.17e-01  0.850   0.3
   31    -295.5432534360029422     5.28e-02  3.95e-03  4.07e-02  1.44e-01  0.850   0.3
   32    -295.5552407211082482    -1.20e-02  4.85e-03  3.66e-02  1.80e-01  0.850   0.2
   33    -295.6609094869875207    -1.06e-01  5.60e-03  4.52e-02  2.08e-01  0.850   0.2
   34    -295.8228223299480533    -1.62e-01  5.59e-03  5.39e-02  2.13e-01  0.850   0.3
   35    -295.9892600682751436    -1.66e-01  5.26e-03  6.11e-02  1.85e-01  0.850   0.3
   36    -296.1080506179899885    -1.19e-01  4.69e-03  5.32e-02  1.45e-01  0.850   0.5
   37    -296.1748827514946925    -6.68e-02  4.08e-03  4.21e-02  1.06e-01  0.850   0.3
   38    -296.2068279634243027    -3.19e-02  3.56e-03  3.59e-02  6.90e-02  0.850   0.3
   39    -296.2226383291127831    -1.58e-02  3.11e-03  3.16e-02  4.84e-02  0.850   0.2
   40    -296.2347543109893877    -1.21e-02  2.71e-03  2.73e-02  5.16e-02  0.850   0.3
               *** Restarting incremental Fock matrix formation ***
                             ****Resetting DIIS****
Warning: op=0 Small HOMO/LUMO gap (  -0.136) - skipping pre-diagonalization
         Will do a full diagonalization
   41    -296.2484628170767564    -1.37e-02  5.23e-03  2.88e-02  5.00e-02  0.850   0.3
   42    -296.3038036119386334    -5.53e-02  3.94e-03  2.20e-02  1.96e-02  0.850   0.2
   43    -296.3049721075780099    -1.17e-03  2.11e-02  1.37e-01  2.02e-02  0.000   0.2
   44    -295.6965860804991735     6.08e-01  2.92e-03  2.03e-02  1.77e-01  0.000   0.3
   45    -295.7890034550066503    -9.24e-02  3.35e-04  2.55e-03  1.69e-01  0.850   0.2
   46    -295.8000375516555778    -1.10e-02  5.73e-04  4.58e-03  1.68e-01  0.850   0.2
   47    -295.8186730598324630    -1.86e-02  8.41e-04  7.14e-03  1.66e-01  0.850   0.3
   48    -295.8459544806053145    -2.73e-02  9.42e-03  7.24e-02  1.62e-01  0.850   0.2
   49    -296.1790461965331360    -3.33e-01  6.74e-03  3.61e-02  7.96e-02  0.850   0.3
   50    -296.2854666856701442    -1.06e-01  5.16e-03  2.88e-02  2.34e-02  0.850   0.3

       ******************************************************************************
       ***                                                                        ***
       ***                               Auto-TRAH                                ***
       ***                               ---------                                ***
       *** the maximum gradient error decreased on average only by a factor   1.0 ***
       *** during the last  10 iterations                                         ***
       ***                                                                        ***
       ***               Leaving SCF to start the TRAH-SCF procedure              ***
       ***                                                                        ***
       ******************************************************************************

 --------------------------------------------------------------------------------------------
   Iter.        energy            ||Error||_2        Shift      TRadius  Mac/Mic        Rej.
 --------------------------------------------------------------------------------------------
    0       -295.367820047194     2.313501e+00                     0.400 (TRAH MAcro)   No
WARNING: 260 diagonal Hessian elements are negative!
WARNING : negative HOMO - LUMO gap : -0.676979
WARNING : negative HOMO - LUMO gap : -0.676979
    0     dE    -7.679734e-01     4.323532e-01    -4.0691e+00      0.400 (TRAH MIcro)
    0     dE    -7.822794e-01     2.697126e-02    -4.5861e+00      0.400 (TRAH MIcro)
    0     dE    -7.823315e-01     5.963968e-03    -4.5843e+00      0.400 (TRAH MIcro)
    1       -296.076880909655     1.314184e+00                     0.480 (TRAH MAcro)   No
WARNING: 120 diagonal Hessian elements are negative!
WARNING : negative HOMO - LUMO gap : -0.308078
WARNING : negative HOMO - LUMO gap : -0.308078
    1     dE    -2.940235e-01     4.747170e-01    -5.0743e-01      0.399 (TRAH MIcro)
    1     dE    -3.379354e-01     2.837236e-01    -6.8682e-01      0.480 (TRAH MIcro)
    1     dE    -3.553608e-01     1.302397e-01    -8.4528e-01      0.480 (TRAH MIcro)
    1     dE    -3.616486e-01     6.629123e-02    -9.6256e-01      0.480 (TRAH MIcro)
    1     dE    -3.611388e-01     5.245843e-02    -1.0664e+00      0.475 (TRAH MIcro)
    1     dE    -3.648523e-01     4.693188e-02    -1.1112e+00      0.480 (TRAH MIcro)
    1     dE    -3.661893e-01     2.007820e-02    -1.1076e+00      0.480 (TRAH MIcro)
    1     dE    -3.662333e-01     7.140257e-03    -1.1087e+00      0.480 (TRAH MIcro)
    2       -296.356027691321     2.037985e-01                     0.576 (TRAH MAcro)   No
WARNING: 18 diagonal Hessian elements are negative!
WARNING : negative HOMO - LUMO gap : -0.022208
WARNING : negative HOMO - LUMO gap : -0.022208
    2     dE    -1.167944e-02     1.970154e-01    -2.2596e-02      0.184 (TRAH MIcro)
    2     dE    -1.938173e-02     1.960175e-01    -3.5010e-02      0.327 (TRAH MIcro)
    2     dE    -2.276217e-02     1.631894e-01    -3.8027e-02      0.444 (TRAH MIcro)
    2     dE    -2.702125e-02     1.277537e-01    -4.3445e-02      0.494 (TRAH MIcro)
    2     dE    -3.017306e-02     1.008098e-01    -5.0230e-02      0.576 (TRAH MIcro)
    2     dE    -3.092803e-02     6.815797e-02    -4.8277e-02      0.530 (TRAH MIcro)
    2     dE    -3.196050e-02     4.842102e-02    -4.9612e-02      0.537 (TRAH MIcro)
    2     dE    -3.244281e-02     3.139620e-02    -5.0191e-02      0.541 (TRAH MIcro)
    2     dE    -3.260071e-02     1.889314e-02    -5.0474e-02      0.540 (TRAH MIcro)
    2     dE    -3.282972e-02     1.284335e-02    -5.0578e-02      0.546 (TRAH MIcro)
    2     dE    -3.296913e-02     8.523290e-03    -5.0624e-02      0.550 (TRAH MIcro)
    3       -296.381882539683     8.318648e-02                     0.691 (TRAH MAcro)   No
WARNING: 10 diagonal Hessian elements are negative!
WARNING : negative HOMO - LUMO gap : -0.010599
WARNING : negative HOMO - LUMO gap : -0.010599
    3     dE    -1.099650e-03     5.648506e-02    -2.1948e-03      0.045 (TRAH MIcro)
    3     dE    -1.486345e-03     3.929879e-02    -2.9601e-03      0.065 (TRAH MIcro)
    3     dE    -1.770460e-03     4.659770e-02    -3.5119e-03      0.091 (TRAH MIcro)
    3     dE    -2.680043e-03     4.149223e-02    -5.0824e-03      0.234 (TRAH MIcro)
    3     dE    -2.894733e-03     4.497444e-02    -5.4571e-03      0.247 (TRAH MIcro)
    3     dE    -3.425074e-03     4.406382e-02    -6.2425e-03      0.312 (TRAH MIcro)
    3     dE    -3.881584e-03     2.350418e-02    -6.8602e-03      0.363 (TRAH MIcro)
    3     dE    -4.171749e-03     1.685269e-02    -7.0931e-03      0.420 (TRAH MIcro)
    3     dE    -4.465672e-03     1.879852e-02    -7.2657e-03      0.479 (TRAH MIcro)
    3     dE    -5.296543e-03     3.771741e-02    -7.6852e-03      0.615 (TRAH MIcro)
    3     dE    -6.434125e-03     4.842425e-02    -1.1461e-02      0.691 (TRAH MIcro)
    3     dE    -6.072351e-03     2.564367e-02    -1.4906e-02      0.603 (TRAH MIcro)
    3     dE    -7.102534e-03     1.778212e-02    -1.5331e-02      0.691 (TRAH MIcro)
    3     dE    -7.171036e-03     1.580518e-02    -1.5648e-02      0.691 (TRAH MIcro)
    3     dE    -7.297896e-03     2.760887e-02    -1.6082e-02      0.691 (TRAH MIcro)
    3     dE    -7.849563e-03     5.838671e-02    -1.8309e-02      0.691 (TRAH MIcro)
    3     dE    -1.060102e-02     8.246064e-02    -3.0406e-02      0.691 (TRAH MIcro)
    3     dE    -4.047824e-03     1.882379e-02    -4.4278e-02      0.261 (TRAH MIcro)
    3     dE    -4.284476e-03     1.208692e-02    -4.6199e-02      0.266 (TRAH MIcro)
    3     dE    -4.346279e-03     6.255686e-03    -4.6534e-02      0.268 (TRAH MIcro)
    4       -296.382156125371     1.030477e-01                     0.463 (TRAH MAcro)   No
WARNING: 8 diagonal Hessian elements are negative!
WARNING : negative HOMO - LUMO gap : -0.011359
WARNING : negative HOMO - LUMO gap : -0.011359
    4     dE    -1.843656e-03     4.383278e-02    -3.6797e-03      0.046 (TRAH MIcro)
    4     dE    -2.069356e-03     2.306978e-02    -4.1266e-03      0.054 (TRAH MIcro)
    4     dE    -2.128710e-03     2.118509e-02    -4.2437e-03      0.057 (TRAH MIcro)
    4     dE    -2.266300e-03     2.077633e-02    -4.5083e-03      0.073 (TRAH MIcro)
    4     dE    -2.438004e-03     2.073600e-02    -4.8178e-03      0.110 (TRAH MIcro)
    4     dE    -2.552391e-03     1.276054e-02    -5.0213e-03      0.129 (TRAH MIcro)
    4     dE    -2.581663e-03     7.722967e-03    -5.0727e-03      0.134 (TRAH MIcro)
    5       -296.384755172446     1.521940e-02                     0.556 (TRAH MAcro)   No
WARNING: 3 diagonal Hessian elements are negative!
WARNING : negative HOMO - LUMO gap : -0.001762
WARNING : negative HOMO - LUMO gap : -0.001762
    5     dE    -3.677515e-05     1.436016e-02    -7.3543e-05      0.010 (TRAH MIcro)
    5     dE    -1.075606e-04     2.478279e-02    -2.1485e-04      0.036 (TRAH MIcro)
    5     dE    -1.813260e-04     2.034851e-02    -3.6146e-04      0.057 (TRAH MIcro)
    5     dE    -3.769315e-04     2.419272e-02    -7.3937e-04      0.140 (TRAH MIcro)
    5     dE    -4.734236e-04     1.995151e-02    -9.2161e-04      0.165 (TRAH MIcro)
    5     dE    -5.929899e-04     1.669944e-02    -1.1450e-03      0.189 (TRAH MIcro)
    5     dE    -6.490631e-04     1.045703e-02    -1.2499e-03      0.196 (TRAH MIcro)
    5     dE    -6.629402e-04     6.700167e-03    -1.2770e-03      0.196 (TRAH MIcro)
    5     dE    -6.717284e-04     4.509910e-03    -1.2930e-03      0.198 (TRAH MIcro)
    5     dE    -6.781325e-04     3.509364e-03    -1.3050e-03      0.198 (TRAH MIcro)
    5     dE    -6.810875e-04     2.762445e-03    -1.3099e-03      0.200 (TRAH MIcro)
    5     dE    -6.825943e-04     2.259912e-03    -1.3119e-03      0.202 (TRAH MIcro)
    5     dE    -6.832053e-04     1.823610e-03    -1.3129e-03      0.202 (TRAH MIcro)
    5     dE    -6.837519e-04     1.835621e-03    -1.3138e-03      0.202 (TRAH MIcro)
    5     dE    -6.843772e-04     2.189313e-03    -1.3151e-03      0.202 (TRAH MIcro)
    5     dE    -6.863530e-04     3.109206e-03    -1.3185e-03      0.203 (TRAH MIcro)
    5     dE    -6.893688e-04     2.980158e-03    -1.3243e-03      0.203 (TRAH MIcro)
    5     dE    -6.907972e-04     2.087448e-03    -1.3268e-03      0.203 (TRAH MIcro)
    5     dE    -6.916745e-04     7.071882e-04    -1.3281e-03      0.204 (TRAH MIcro)
    6       -296.385440570769     2.037058e-02                     0.667 (TRAH MAcro)   No
WARNING: 2 diagonal Hessian elements are negative!
WARNING : negative HOMO - LUMO gap : -0.001743
WARNING : negative HOMO - LUMO gap : -0.001743
    6     dE    -3.937215e-05     1.492019e-02    -7.8740e-05      0.007 (TRAH MIcro)
    6     dE    -6.618218e-05     8.098684e-03    -1.3233e-04      0.016 (TRAH MIcro)
    6     dE    -7.587793e-05     6.908007e-03    -1.5171e-04      0.017 (TRAH MIcro)
    6     dE    -7.975878e-05     3.689678e-03    -1.5946e-04      0.020 (TRAH MIcro)
    6     dE    -8.276036e-05     4.023156e-03    -1.6547e-04      0.018 (TRAH MIcro)
    6     dE    -9.206813e-05     3.852738e-03    -1.8402e-04      0.025 (TRAH MIcro)
    6     dE    -9.669569e-05     3.285092e-03    -1.9321e-04      0.031 (TRAH MIcro)
    6     dE    -9.816795e-05     1.759869e-03    -1.9612e-04      0.033 (TRAH MIcro)
    7       -296.385545672846     2.110860e-03                     0.800 (TRAH MAcro)   No
WARNING: 3 diagonal Hessian elements are negative!
WARNING : negative HOMO - LUMO gap : -0.001514
WARNING : negative HOMO - LUMO gap : -0.001514
    7     dE    -1.750677e-07     2.091852e-03    -3.5014e-07      0.001 (TRAH MIcro)
    7     dE    -1.281320e-06     2.568999e-03    -2.5626e-06      0.004 (TRAH MIcro)
    7     dE    -1.931588e-06     2.283202e-03    -3.8630e-06      0.006 (TRAH MIcro)
    7     dE    -4.691769e-06     2.447697e-03    -9.3814e-06      0.015 (TRAH MIcro)
    7     dE    -5.410890e-06     2.141060e-03    -1.0818e-05      0.018 (TRAH MIcro)
    7     dE    -6.494609e-06     9.459131e-04    -1.2984e-05      0.020 (TRAH MIcro)
    7     dE    -6.567556e-06     6.707376e-04    -1.3130e-05      0.021 (TRAH MIcro)
    7     dE    -6.619779e-06     5.041461e-04    -1.3234e-05      0.021 (TRAH MIcro)
    7     dE    -6.653362e-06     4.237376e-04    -1.3301e-05      0.021 (TRAH MIcro)
    7     dE    -6.669734e-06     4.047078e-04    -1.3334e-05      0.021 (TRAH MIcro)
    7     dE    -6.721888e-06     5.385124e-04    -1.3438e-05      0.021 (TRAH MIcro)
    7     dE    -6.834280e-06     7.162969e-04    -1.3663e-05      0.021 (TRAH MIcro)
    7     dE    -6.985827e-06     8.338817e-04    -1.3965e-05      0.021 (TRAH MIcro)
    7     dE    -7.190578e-06     6.213761e-04    -1.4374e-05      0.022 (TRAH MIcro)
    7     dE    -7.242212e-06     4.002527e-04    -1.4477e-05      0.022 (TRAH MIcro)
    7     dE    -7.268500e-06     2.167439e-04    -1.4530e-05      0.022 (TRAH MIcro)
    7     dE    -7.273798e-06     1.318429e-04    -1.4540e-05      0.022 (TRAH MIcro)
    8       -296.385553166383     4.722659e-04                     0.960 (TRAH MAcro)   No
WARNING: 3 diagonal Hessian elements are negative!
WARNING : negative HOMO - LUMO gap : -0.001557
WARNING : negative HOMO - LUMO gap : -0.001557
    8     dE    -5.918195e-10     4.602187e-04    -1.1836e-09      0.000 (TRAH MIcro)
    8     dE    -3.984000e-08     3.243642e-04    -7.9680e-08      0.000 (TRAH MIcro)
    8     dE    -5.927224e-08     1.698174e-04    -1.1854e-07      0.001 (TRAH MIcro)
    8     dE    -6.897177e-08     1.840388e-04    -1.3794e-07      0.001 (TRAH MIcro)
    8     dE    -8.198498e-08     1.778076e-04    -1.6397e-07      0.002 (TRAH MIcro)
    8     dE    -9.394626e-08     1.251046e-04    -1.8789e-07      0.003 (TRAH MIcro)
    8     dE    -9.853589e-08     8.568959e-05    -1.9707e-07      0.003 (TRAH MIcro)
    8     dE    -9.962870e-08     7.958318e-05    -1.9926e-07      0.003 (TRAH MIcro)
    8     dE    -1.009628e-07     6.980714e-05    -2.0192e-07      0.004 (TRAH MIcro)
    8     dE    -1.025002e-07     7.078738e-05    -2.0500e-07      0.004 (TRAH MIcro)
    8     dE    -1.053136e-07     1.030824e-04    -2.1062e-07      0.004 (TRAH MIcro)
    8     dE    -1.087778e-07     1.158069e-04    -2.1755e-07      0.005 (TRAH MIcro)
    8     dE    -1.173119e-07     1.682609e-04    -2.3462e-07      0.006 (TRAH MIcro)
    8     dE    -1.286320e-07     1.975403e-04    -2.5725e-07      0.006 (TRAH MIcro)
    8     dE    -1.449601e-07     1.136512e-04    -2.8991e-07      0.007 (TRAH MIcro)
    8     dE    -1.482133e-07     7.737638e-05    -2.9641e-07      0.007 (TRAH MIcro)
    8     dE    -1.490842e-07     3.426830e-05    -2.9815e-07      0.007 (TRAH MIcro)
    9       -296.385553316895     5.474273e-05                           (NR   MAcro)
WARNING: 3 diagonal Hessian elements are negative!
WARNING : negative HOMO - LUMO gap : -0.001563
    9     dE    -2.487434e-10     3.577793e-05                           (NR   MIcro)
    9     dE    -3.316437e-10     2.725925e-05                           (NR   MIcro)
    9     dE    -4.299614e-10     1.988303e-05                           (NR   MIcro)
    9     dE    -4.467269e-10     1.871704e-05                           (NR   MIcro)
    9     dE    -5.018018e-10     1.214174e-05                           (NR   MIcro)
    9     dE    -5.240160e-10     1.029237e-05                           (NR   MIcro)
    9     dE    -5.454134e-10     9.604409e-06                           (NR   MIcro)
    9     dE    -5.686942e-10     9.308876e-06                           (NR   MIcro)
    9     dE    -5.918205e-10     1.148673e-05                           (NR   MIcro)
    9     dE    -6.284598e-10     1.533839e-05                           (NR   MIcro)
    9     dE    -7.462540e-10     2.313643e-05                           (NR   MIcro)
    9     dE    -9.130484e-10     2.069873e-05                           (NR   MIcro)
    9     dE    -1.022905e-09     1.386635e-05                           (NR   MIcro)
    9     dE    -1.068154e-09     7.265326e-06                           (NR   MIcro)
    9     dE    -1.076177e-09     3.948574e-06                           (NR   MIcro)
    9     dE    -1.079194e-09     2.061800e-06                           (NR   MIcro)
    9     dE    -1.080036e-09     1.289237e-06                           (NR   MIcro)
    9     dE    -1.081082e-09     1.678686e-06                           (NR   MIcro)
    9     dE    -1.087620e-09     6.105776e-06                           (NR   MIcro)
    9     dE    -1.100866e-09     9.309460e-06                           (NR   MIcro)
    9     dE    -1.145084e-09     9.743739e-06                           (NR   MIcro)
    9     dE    -1.162391e-09     5.251882e-06                           (NR   MIcro)
    9     dE    -1.167919e-09     2.216271e-06                           (NR   MIcro)
    9     dE    -1.168701e-09     1.494449e-06                           (NR   MIcro)
   10       -296.385553318067     1.519590e-06                           (NR   MAcro)

               *****************************************************
               *                     SUCCESS                       *
               *           SCF CONVERGED AFTER 195 CYCLES          *
               *****************************************************

Warning: op=0 Small HOMO/LUMO gap (  -0.002) - skipping pre-diagonalization
         Will do a full diagonalization
             **** ENERGY FILE WAS UPDATED (trunc_tetrahedron_nn1.80.en.tmp) ****

----------------
TOTAL SCF ENERGY
----------------

Total Energy       :       -296.38555331806691 Eh           -8065.06093 eV

Components:
Nuclear Repulsion  :        211.54153663742264 Eh            5756.33786 eV
Electronic Energy  :       -507.92708995548958 Eh          -13821.39878 eV
One Electron Energy:       -811.77333375345142 Eh          -22089.47542 eV
Two Electron Energy:        303.84624379796185 Eh            8268.07663 eV

Virial components:
Potential Energy   :       -588.29970244773449 Eh          -16008.44876 eV
Kinetic Energy     :        291.91414912966752 Eh            7943.38783 eV
Virial Ratio       :          2.01531753154731

DFT components:
N(Alpha)           :       29.999910140783 electrons
N(Beta)            :       29.999910140783 electrons
N(Total)           :       59.999820281566 electrons
E(X)               :      -45.015856604329 Eh       
E(C)               :       -1.779260416557 Eh       
E(XC)              :      -46.795117020886 Eh       

---------------
SCF CONVERGENCE
---------------

  Last Energy change         ...   -1.1719e-09  Tolerance :   1.0000e-08
  Last MAX-Density change    ...    1.6214e-01  Tolerance :   1.0000e-07
  Last RMS-Density change    ...    2.7979e-02  Tolerance :   5.0000e-09
  Last DIIS Error            ...    2.0647e-02  Tolerance :   5.0000e-07


----------------
ORBITAL ENERGIES
----------------

  NO   OCC          E(Eh)            E(eV) 
   0   2.0000      -6.727169      -183.0556 
   1   2.0000      -6.641058      -180.7124 
   2   2.0000      -6.641052      -180.7122 
   3   2.0000      -6.637079      -180.6041 
   4   2.0000      -6.637078      -180.6041 
   5   2.0000      -6.630799      -180.4332 
   6   2.0000      -6.630713      -180.4309 
   7   2.0000      -6.598864      -179.5642 
   8   2.0000      -6.598835      -179.5634 
   9   2.0000      -6.595246      -179.4658 
  10   2.0000      -6.591601      -179.3666 
  11   2.0000      -6.586980      -179.2408 
  12   2.0000      -0.518056       -14.0970 
  13   2.0000      -0.481815       -13.1109 
  14   2.0000      -0.462708       -12.5909 
  15   2.0000      -0.462560       -12.5869 
  16   2.0000      -0.399624       -10.8743 
  17   2.0000      -0.348818        -9.4918 
  18   2.0000      -0.346683        -9.4337 
  19   2.0000      -0.342099        -9.3090 
  20   2.0000      -0.278337        -7.5739 
  21   2.0000      -0.275070        -7.4850 
  22   2.0000      -0.254527        -6.9260 
  23   2.0000      -0.226316        -6.1584 
  24   2.0000      -0.225015        -6.1230 
  25   2.0000      -0.213386        -5.8065 
  26   2.0000      -0.200517        -5.4564 
  27   2.0000      -0.198476        -5.4008 
  28   2.0000      -0.196127        -5.3369 
  29   2.0000      -0.193949        -5.2776 
  30   0.0000      -0.093949        -2.5565 
  31   0.0000      -0.093638        -2.5480 
  32   0.0000      -0.093291        -2.5386 
  33   0.0000      -0.091910        -2.5010 
  34   0.0000      -0.085026        -2.3137 
  35   0.0000      -0.084883        -2.3098 
  36   0.0000      -0.076139        -2.0718 
  37   0.0000      -0.075513        -2.0548 
  38   0.0000      -0.063274        -1.7218 
  39   0.0000      -0.010710        -0.2914 
  40   0.0000      -0.004732        -0.1288 
*Only the first 10 virtual orbitals were printed.

                    ********************************
                    * MULLIKEN POPULATION ANALYSIS *
                    ********************************

-----------------------
MULLIKEN ATOMIC CHARGES
-----------------------
   0 B :   -0.001020
   1 B :   -0.021781
   2 B :   -0.021780
   3 B :   -0.110788
   4 B :   -0.037962
   5 B :   -0.012601
   6 B :   -0.012603
   7 B :    0.247107
   8 B :   -0.024403
   9 B :   -0.024404
  10 B :    0.010117
  11 B :    0.010118
Sum of atomic charges:   -0.0000000

--------------------------------
MULLIKEN REDUCED ORBITAL CHARGES
--------------------------------
  0 B s       :     3.317477  s :     3.317477
      pz      :     0.760683  p :     1.661680
      px      :     0.459771
      py      :     0.441226
      dz2     :     0.004145  d :     0.021863
      dxz     :     0.000069
      dyz     :     0.007890
      dx2y2   :     0.004664
      dxy     :     0.005095

  1 B s       :     3.291080  s :     3.291080
      pz      :     0.449924  p :     1.709263
      px      :     0.483654
      py      :     0.775685
      dz2     :     0.007041  d :     0.021437
      dxz     :     0.004838
      dyz     :     0.007675
      dx2y2   :     0.001829
      dxy     :     0.000056

  2 B s       :     3.291081  s :     3.291081
      pz      :     0.449923  p :     1.709262
      px      :     0.483654
      py      :     0.775685
      dz2     :     0.007041  d :     0.021437
      dxz     :     0.004838
      dyz     :     0.007675
      dx2y2   :     0.001829
      dxy     :     0.000056

  3 B s       :     3.294948  s :     3.294948
      pz      :     0.762700  p :     1.794587
      px      :     0.491428
      py      :     0.540459
      dz2     :     0.003796  d :     0.021253
      dxz     :     0.000084
      dyz     :     0.008028
      dx2y2   :     0.004554
      dxy     :     0.004791

  4 B s       :     3.394242  s :     3.394242
      pz      :     0.559805  p :     1.622208
      px      :     0.534507
      py      :     0.527896
      dz2     :     0.003733  d :     0.021512
      dxz     :     0.009219
      dyz     :     0.000100
      dx2y2   :     0.004369
      dxy     :     0.004090

  5 B s       :     3.695018  s :     3.695018
      pz      :     0.366104  p :     1.306363
      px      :     0.499668
      py      :     0.440591
      dz2     :     0.001587  d :     0.011221
      dxz     :     0.001439
      dyz     :     0.001445
      dx2y2   :     0.002017
      dxy     :     0.004733

  6 B s       :     3.695022  s :     3.695022
      pz      :     0.366099  p :     1.306361
      px      :     0.499653
      py      :     0.440609
      dz2     :     0.001587  d :     0.011221
      dxz     :     0.001439
      dyz     :     0.001445
      dx2y2   :     0.002017
      dxy     :     0.004733

  7 B s       :     3.995075  s :     3.995075
      pz      :     0.024671  p :     0.757659
      px      :     0.431167
      py      :     0.301820
      dz2     :     0.000035  d :     0.000160
      dxz     :     0.000004
      dyz     :     0.000006
      dx2y2   :     0.000010
      dxy     :     0.000105

  8 B s       :     3.633701  s :     3.633701
      pz      :     0.521327  p :     1.376541
      px      :     0.433210
      py      :     0.422004
      dz2     :     0.005237  d :     0.014161
      dxz     :     0.004107
      dyz     :     0.002184
      dx2y2   :     0.001692
      dxy     :     0.000941

  9 B s       :     3.633703  s :     3.633703
      pz      :     0.521331  p :     1.376540
      px      :     0.433207
      py      :     0.422002
      dz2     :     0.005237  d :     0.014161
      dxz     :     0.004107
      dyz     :     0.002184
      dx2y2   :     0.001692
      dxy     :     0.000941

 10 B s       :     3.670896  s :     3.670896
      pz      :     0.446081  p :     1.308238
      px      :     0.369918
      py      :     0.492239
      dz2     :     0.001549  d :     0.010749
      dxz     :     0.001098
      dyz     :     0.001050
      dx2y2   :     0.002551
      dxy     :     0.004500

 11 B s       :     3.670898  s :     3.670898
      pz      :     0.446071  p :     1.308235
      px      :     0.369934
      py      :     0.492229
      dz2     :     0.001549  d :     0.010749
      dxz     :     0.001098
      dyz     :     0.001050
      dx2y2   :     0.002551
      dxy     :     0.004500



                     *******************************
                     * LOEWDIN POPULATION ANALYSIS *
                     *******************************

----------------------
LOEWDIN ATOMIC CHARGES
----------------------
   0 B :   -0.009312
   1 B :   -0.023651
   2 B :   -0.023650
   3 B :   -0.112107
   4 B :   -0.220323
   5 B :   -0.008077
   6 B :   -0.008080
   7 B :    0.253287
   8 B :    0.063916
   9 B :    0.063914
  10 B :    0.012041
  11 B :    0.012043

-------------------------------
LOEWDIN REDUCED ORBITAL CHARGES
-------------------------------
  0 B s       :     3.063257  s :     3.063257
      pz      :     0.904213  p :     1.892414
      px      :     0.460083
      py      :     0.528118
      dz2     :     0.007294  d :     0.053640
      dxz     :     0.000106
      dyz     :     0.028061
      dx2y2   :     0.010791
      dxy     :     0.007389

  1 B s       :     3.037904  s :     3.037904
      pz      :     0.534141  p :     1.932973
      px      :     0.485545
      py      :     0.913287
      dz2     :     0.013087  d :     0.052774
      dxz     :     0.007049
      dyz     :     0.027454
      dx2y2   :     0.005094
      dxy     :     0.000089

  2 B s       :     3.037904  s :     3.037904
      pz      :     0.534140  p :     1.932972
      px      :     0.485545
      py      :     0.913286
      dz2     :     0.013087  d :     0.052774
      dxz     :     0.007049
      dyz     :     0.027454
      dx2y2   :     0.005094
      dxy     :     0.000089

  3 B s       :     3.038695  s :     3.038695
      pz      :     0.900298  p :     2.021146
      px      :     0.495533
      py      :     0.625315
      dz2     :     0.006883  d :     0.052267
      dxz     :     0.000131
      dyz     :     0.027999
      dx2y2   :     0.010348
      dxy     :     0.006905

  4 B s       :     3.125341  s :     3.125341
      pz      :     0.752345  p :     2.038408
      px      :     0.754614
      py      :     0.531449
      dz2     :     0.005708  d :     0.056574
      dxz     :     0.033135
      dyz     :     0.000157
      dx2y2   :     0.011563
      dxy     :     0.006011

  5 B s       :     3.432650  s :     3.432650
      pz      :     0.364738  p :     1.547969
      px      :     0.619113
      py      :     0.564119
      dz2     :     0.005135  d :     0.027458
      dxz     :     0.002073
      dyz     :     0.002043
      dx2y2   :     0.002819
      dxy     :     0.015388

  6 B s       :     3.432653  s :     3.432653
      pz      :     0.364732  p :     1.547969
      px      :     0.619100
      py      :     0.564137
      dz2     :     0.005135  d :     0.027458
      dxz     :     0.002073
      dyz     :     0.002043
      dx2y2   :     0.002819
      dxy     :     0.015388

  7 B s       :     3.989439  s :     3.989439
      pz      :     0.024251  p :     0.757093
      px      :     0.432294
      py      :     0.300548
      dz2     :     0.000041  d :     0.000181
      dxz     :     0.000003
      dyz     :     0.000004
      dx2y2   :     0.000009
      dxy     :     0.000123

  8 B s       :     3.346238  s :     3.346238
      pz      :     0.599033  p :     1.559575
      px      :     0.538080
      py      :     0.422462
      dz2     :     0.008671  d :     0.030271
      dxz     :     0.012884
      dyz     :     0.003046
      dx2y2   :     0.004131
      dxy     :     0.001539

  9 B s       :     3.346239  s :     3.346239
      pz      :     0.599037  p :     1.559576
      px      :     0.538078
      py      :     0.422461
      dz2     :     0.008671  d :     0.030271
      dxz     :     0.012884
      dyz     :     0.003046
      dx2y2   :     0.004131
      dxy     :     0.001539

 10 B s       :     3.418395  s :     3.418395
      pz      :     0.446903  p :     1.543030
      px      :     0.484687
      py      :     0.611441
      dz2     :     0.004995  d :     0.026534
      dxz     :     0.001570
      dyz     :     0.001449
      dx2y2   :     0.003704
      dxy     :     0.014817

 11 B s       :     3.418396  s :     3.418396
      pz      :     0.446893  p :     1.543027
      px      :     0.484703
      py      :     0.611431
      dz2     :     0.004995  d :     0.026534
      dxz     :     0.001570
      dyz     :     0.001449
      dx2y2   :     0.003704
      dxy     :     0.014817



                      *****************************
                      * MAYER POPULATION ANALYSIS *
                      *****************************

  NA   - Mulliken gross atomic population
  ZA   - Total nuclear charge
  QA   - Mulliken gross atomic charge
  VA   - Mayer's total valence
  BVA  - Mayer's bonded valence
  FA   - Mayer's free valence

  ATOM       NA         ZA         QA         VA         BVA        FA
  0 B      5.0010     5.0000    -0.0010     3.2335     3.2335    -0.0000
  1 B      5.0218     5.0000    -0.0218     3.3049     3.3049    -0.0000
  2 B      5.0218     5.0000    -0.0218     3.3049     3.3049    -0.0000
  3 B      5.1108     5.0000    -0.1108     3.3811     3.3811    -0.0000
  4 B      5.0380     5.0000    -0.0380     3.0578     3.0578     0.0000
  5 B      5.0126     5.0000    -0.0126     2.3896     2.3896    -0.0000
  6 B      5.0126     5.0000    -0.0126     2.3895     2.3895    -0.0000
  7 B      4.7529     5.0000     0.2471     1.0186     1.0186    -0.0000
  8 B      5.0244     5.0000    -0.0244     2.6689     2.6689    -0.0000
  9 B      5.0244     5.0000    -0.0244     2.6689     2.6689     0.0000
 10 B      4.9899     5.0000     0.0101     2.4268     2.4268    -0.0000
 11 B      4.9899     5.0000     0.0101     2.4268     2.4268    -0.0000

  Mayer bond orders larger than 0.100000
B(  0-B ,  1-B ) :   1.1951 B(  0-B ,  2-B ) :   1.1951 B(  0-B ,  3-B ) :   0.4568 
B(  0-B ,  7-B ) :   0.2184 B(  1-B ,  2-B ) :   0.4293 B(  1-B ,  3-B ) :   1.1991 
B(  1-B ,  5-B ) :   0.1805 B(  2-B ,  3-B ) :   1.1991 B(  2-B ,  6-B ) :   0.1805 
B(  3-B ,  7-B ) :   0.4337 B(  4-B ,  5-B ) :   0.1489 B(  4-B ,  6-B ) :   0.1489 
B(  4-B ,  8-B ) :   1.1657 B(  4-B ,  9-B ) :   1.1657 B(  4-B , 10-B ) :   0.1683 
B(  4-B , 11-B ) :   0.1683 B(  5-B ,  6-B ) :   0.1808 B(  5-B ,  8-B ) :   0.2240 
B(  5-B ,  9-B ) :   0.1219 B(  5-B , 10-B ) :   1.2221 B(  5-B , 11-B ) :   0.1557 
B(  6-B ,  8-B ) :   0.1219 B(  6-B ,  9-B ) :   0.2240 B(  6-B , 10-B ) :   0.1557 
B(  6-B , 11-B ) :   1.2221 B(  8-B ,  9-B ) :   0.5850 B(  8-B , 10-B ) :   0.3805 
B(  8-B , 11-B ) :   0.1242 B(  9-B , 10-B ) :   0.1242 B(  9-B , 11-B ) :   0.3805 
B( 10-B , 11-B ) :   0.1363 

-------
TIMINGS
-------

Total SCF time: 0 days 0 hours 0 min 41 sec 

Total time                  ....      41.217 sec
Sum of individual times     ....      37.742 sec  ( 91.6%)

SCF preparation             ....       0.477 sec  (  1.2%)
Fock matrix formation       ....      31.713 sec  ( 76.9%)
  Startup                   ....       0.067 sec  (  0.2% of F)
  Split-RI-J                ....      15.449 sec  ( 48.7% of F)
  XC integration            ....      14.942 sec  ( 47.1% of F)
    XC Preparation          ....       0.000 sec  (  0.0% of XC)
    Basis function eval.    ....       2.458 sec  ( 16.4% of XC)
    Density eval.           ....       1.516 sec  ( 10.1% of XC)
    XC-Functional eval.     ....       0.395 sec  (  2.6% of XC)
    XC-Potential eval.      ....       1.895 sec  ( 12.7% of XC)
Diagonalization             ....       0.000 sec  (  0.0%)
Density matrix formation    ....       1.232 sec  (  3.0%)
Total Energy calculation    ....       0.292 sec  (  0.7%)
Population analysis         ....       0.026 sec  (  0.1%)
Orbital Transformation      ....       1.532 sec  (  3.7%)
Orbital Orthonormalization  ....       0.000 sec  (  0.0%)
DIIS solution               ....       2.463 sec  (  6.0%)
SOSCF solution              ....       0.000 sec  (  0.0%)
NR solution                 ....       0.006 sec  (  0.0%)
Finished LeanSCF after  41.2 sec

Maximum memory used throughout the entire LEANSCF-calculation: 10.1 MB


-------------------------------------------------------------------------------
                          DFT DISPERSION CORRECTION                            
                                                                               
                              DFTD3 V3.1  Rev 1                                
                          USING Becke-Johnson damping                          
-------------------------------------------------------------------------------
The BP86 functional is recognized
Active option DFTDOPT                   ...         4   

molecular C6(AA) [au] = 9843.207115 


            DFT-D V3
 parameters
 s6 scaling factor         :     1.0000 
 a1 scaling factor         :     0.3946 
 s8 scaling factor         :     3.2822 
 a2 scaling factor         :     4.8516 
 ad hoc parameters k1-k3   :    16.0000     1.3333    -4.0000 

 Edisp/kcal,au: -16.730183862081  -0.026661242211 
 E6   /kcal   :  -5.234633359 
 E8   /kcal   : -11.495550503 
 % E8         :  68.711441537 

-------------------------   ----------------
Dispersion correction           -0.026661242
-------------------------   ----------------


-------------------------   --------------------
FINAL SINGLE POINT ENERGY      -296.412214560278
-------------------------   --------------------



           ************************************************************
           *        Program running with 8 parallel MPI-processes     *
           *              working on a common directory               *
           ************************************************************
------------------------------------------------------------------------------
                         ORCA SCF GRADIENT CALCULATION
------------------------------------------------------------------------------

Nuc. rep. gradient        (SHARK) ... done (  0.0 sec)
HCore & Overlap gradient  (SHARK) ... done (  0.0 sec)
Split-RIJ-J gradient      (SHARK) ... done (  0.4 sec)
XC gradient                       ... done (  0.6 sec)
Dispersion correction             ... done (  0.1 sec)

-------------------
DISPERSION GRADIENT
-------------------

   1   B   :   -0.000788351    0.000847448    0.000000000
   2   B   :   -0.000671980    0.000071679    0.000767175
   3   B   :   -0.000671980    0.000071679   -0.000767175
   4   B   :   -0.000557190   -0.000693046    0.000000000
   5   B   :    0.000777938   -0.000766071    0.000000000
   6   B   :    0.000546072   -0.000002252   -0.000823734
   7   B   :    0.000546072   -0.000002252    0.000823734
   8   B   :    0.000517199    0.000868561   -0.000000000
   9   B   :    0.000034498   -0.000679104    0.000474014
  10   B   :    0.000034498   -0.000679104   -0.000474014
  11   B   :    0.000116613    0.000481230   -0.000689319
  12   B   :    0.000116613    0.000481230    0.000689319

Difference to translation invariance:
           :   -0.0000000000   -0.0000000000    0.0000000000

Difference to rotation invariance:
           :    0.0000000000    0.0000000000    0.0000000000

Norm of the Dispersion gradient    ...    0.0033471135
RMS gradient                       ...    0.0005578523
MAX gradient                       ...    0.0008685614

------------------
CARTESIAN GRADIENT
------------------

   1   B   :   -0.002670649   -0.080481445   -0.000000025
   2   B   :   -0.005905257    0.002033877   -0.080719503
   3   B   :   -0.005905326    0.002033932    0.080719731
   4   B   :   -0.012662105    0.070587831   -0.000000070
   5   B   :   -0.063026239    0.001182803    0.000000219
   6   B   :   -0.013641650    0.013982341   -0.007217600
   7   B   :   -0.013641363    0.013981722    0.007217152
   8   B   :    0.012003250    0.011873776   -0.000000012
   9   B   :    0.033295427   -0.012329876   -0.043103889
  10   B   :    0.033295067   -0.012329946    0.043103532
  11   B   :    0.019429511   -0.005267801   -0.007690366
[...]
      px      :     0.674920
      py      :     0.904901
      dz2     :     0.012506  d :     0.060439
      dxz     :     0.010745
      dyz     :     0.011026
      dx2y2   :     0.010519
      dxy     :     0.015643

  9 B s       :     3.248928  s :     3.248928
      pz      :     0.522024  p :     1.800716
      px      :     0.651206
      py      :     0.627487
      dz2     :     0.008739  d :     0.038794
      dxz     :     0.006753
      dyz     :     0.008457
      dx2y2   :     0.008078
      dxy     :     0.006766

 10 B s       :     2.680967  s :     2.680967
      pz      :     0.587427  p :     2.234631
      px      :     0.718227
      py      :     0.928977
      dz2     :     0.012908  d :     0.067225
      dxz     :     0.009993
      dyz     :     0.013112
      dx2y2   :     0.016108
      dxy     :     0.015105

 11 B s       :     2.944737  s :     2.944737
      pz      :     0.514658  p :     1.995703
      px      :     0.711537
      py      :     0.769508
      dz2     :     0.009457  d :     0.046122
      dxz     :     0.008015
      dyz     :     0.008770
      dx2y2   :     0.008919
      dxy     :     0.010961



                     *******************************
                     * LOEWDIN POPULATION ANALYSIS *
                     *******************************

----------------------
LOEWDIN ATOMIC CHARGES
----------------------
   0 B :    0.001880
   1 B :    0.005260
   2 B :    0.034532
   3 B :   -0.067630
   4 B :   -0.091682
   5 B :   -0.015705
   6 B :    0.124911
   7 B :   -0.055765
   8 B :   -0.008280
   9 B :    0.080140
  10 B :    0.024610
  11 B :   -0.032273

-------------------------------
LOEWDIN REDUCED ORBITAL CHARGES
-------------------------------
  0 B s       :     2.692933  s :     2.692933
      pz      :     0.675470  p :     2.165292
      px      :     0.723188
      py      :     0.766633
      dz2     :     0.012817  d :     0.139895
      dxz     :     0.021278
      dyz     :     0.026466
      dx2y2   :     0.041436
      dxy     :     0.037898

  1 B s       :     2.564655  s :     2.564655
      pz      :     0.628244  p :     2.209272
      px      :     0.792175
      py      :     0.788853
      dz2     :     0.032088  d :     0.220813
      dxz     :     0.034385
      dyz     :     0.042311
      dx2y2   :     0.043150
      dxy     :     0.068879

  2 B s       :     2.792470  s :     2.792470
      pz      :     0.536456  p :     2.062281
      px      :     0.584955
      py      :     0.940870
      dz2     :     0.013779  d :     0.110717
      dxz     :     0.025102
      dyz     :     0.016737
      dx2y2   :     0.024592
      dxy     :     0.030507

  3 B s       :     2.711136  s :     2.711136
      pz      :     0.698095  p :     2.225340
      px      :     0.865987
      py      :     0.661258
      dz2     :     0.024015  d :     0.131153
      dxz     :     0.031254
      dyz     :     0.018158
      dx2y2   :     0.031825
      dxy     :     0.025902

  4 B s       :     2.739867  s :     2.739867
      pz      :     0.847754  p :     2.237976
      px      :     0.888037
      py      :     0.502185
      dz2     :     0.016627  d :     0.113839
      dxz     :     0.024039
      dyz     :     0.024945
      dx2y2   :     0.017314
      dxy     :     0.030913

  5 B s       :     2.626930  s :     2.626930
      pz      :     0.725870  p :     2.211089
      px      :     0.813286
      py      :     0.671932
      dz2     :     0.033401  d :     0.177686
      dxz     :     0.037846
      dyz     :     0.025459
      dx2y2   :     0.036245
      dxy     :     0.044733

  6 B s       :     2.721635  s :     2.721635
      pz      :     0.696902  p :     2.004813
      px      :     0.813096
      py      :     0.494816
      dz2     :     0.034542  d :     0.148640
      dxz     :     0.033991
      dyz     :     0.022667
      dx2y2   :     0.026513
      dxy     :     0.030928

  7 B s       :     2.666298  s :     2.666298
      pz      :     0.750611  p :     2.242684
      px      :     0.719629
      py      :     0.772445
      dz2     :     0.028211  d :     0.146783
      dxz     :     0.038641
      dyz     :     0.017308
      dx2y2   :     0.035001
      dxy     :     0.027621

  8 B s       :     2.648085  s :     2.648085
      pz      :     0.670931  p :     2.198957
      px      :     0.729338
      py      :     0.798688
      dz2     :     0.031768  d :     0.161238
      dxz     :     0.031574
      dyz     :     0.024935
      dx2y2   :     0.030104
      dxy     :     0.042857

  9 B s       :     2.804298  s :     2.804298
      pz      :     0.553135  p :     2.021382
      px      :     0.720906
      py      :     0.747341
      dz2     :     0.020433  d :     0.094180
      dxz     :     0.018489
      dyz     :     0.017131
      dx2y2   :     0.019959
      dxy     :     0.018168

 10 B s       :     2.657669  s :     2.657669
      pz      :     0.528036  p :     2.148083
      px      :     0.742982
      py      :     0.877065
      dz2     :     0.027879  d :     0.169638
      dxz     :     0.022031
      dyz     :     0.031140
      dx2y2   :     0.047235
      dxy     :     0.041353

 11 B s       :     2.732702  s :     2.732702
      pz      :     0.532968  p :     2.182624
      px      :     0.758297
      py      :     0.891359
      dz2     :     0.026672  d :     0.116947
      dxz     :     0.015231
      dyz     :     0.023792
      dx2y2   :     0.021055
      dxy     :     0.030195



                      *****************************
                      * MAYER POPULATION ANALYSIS *
                      *****************************

  NA   - Mulliken gross atomic population
  ZA   - Total nuclear charge
  QA   - Mulliken gross atomic charge
  VA   - Mayer's total valence
  BVA  - Mayer's bonded valence
  FA   - Mayer's free valence

  ATOM       NA         ZA         QA         VA         BVA        FA
  0 B      5.1340     5.0000    -0.1340     3.9184     3.9184    -0.0000
  1 B      4.9519     5.0000     0.0481     3.8721     3.8721    -0.0000
  2 B      5.1559     5.0000    -0.1559     3.5149     3.5149    -0.0000
  3 B      4.9718     5.0000     0.0282     3.8253     3.8253    -0.0000
  4 B      5.0623     5.0000    -0.0623     3.6778     3.6778    -0.0000
  5 B      4.8579     5.0000     0.1421     3.6538     3.6538    -0.0000
  6 B      5.1999     5.0000    -0.1999     3.8060     3.8060    -0.0000
  7 B      4.9110     5.0000     0.0890     3.8325     3.8325     0.0000
  8 B      4.6975     5.0000     0.3025     3.5996     3.5996     0.0000
  9 B      5.0884     5.0000    -0.0884     3.6370     3.6370    -0.0000
 10 B      4.9828     5.0000     0.0172     4.0863     4.0863    -0.0000
 11 B      4.9866     5.0000     0.0134     3.8142     3.8142    -0.0000

  Mayer bond orders larger than 0.100000
B(  0-B ,  1-B ) :   0.5757 B(  0-B ,  2-B ) :   1.1484 B(  0-B ,  3-B ) :   0.1379 
B(  0-B ,  4-B ) :   1.1068 B(  0-B ,  6-B ) :   0.1030 B(  0-B ,  8-B ) :   0.4435 
B(  0-B ,  9-B ) :   0.2476 B(  0-B , 10-B ) :   0.1169 B(  1-B ,  2-B ) :   0.3624 
B(  1-B ,  3-B ) :   0.4885 B(  1-B ,  4-B ) :   0.1170 B(  1-B ,  5-B ) :   0.6966 
B(  1-B ,  6-B ) :   0.2490 B(  1-B ,  7-B ) :   0.1476 B(  1-B ,  8-B ) :   0.5550 
B(  1-B , 10-B ) :   0.4948 B(  1-B , 11-B ) :   0.1089 B(  2-B ,  3-B ) :   1.4052 
B(  2-B ,  6-B ) :   0.1745 B(  2-B ,  7-B ) :   0.1096 B(  3-B ,  5-B ) :   0.4298 
B(  3-B ,  6-B ) :   0.9311 B(  3-B ,  7-B ) :   0.1228 B(  3-B ,  8-B ) :   0.1303 
B(  4-B ,  5-B ) :   0.1004 B(  4-B ,  8-B ) :   0.6170 B(  4-B ,  9-B ) :   1.4358 
B(  4-B , 10-B ) :   0.1119 B(  5-B ,  6-B ) :   0.5949 B(  5-B ,  7-B ) :   0.8367 
B(  5-B , 10-B ) :   0.6692 B(  5-B , 11-B ) :   0.1517 B(  6-B ,  7-B ) :   0.6243 
B(  6-B ,  9-B ) :   0.1719 B(  6-B , 11-B ) :   0.7816 B(  7-B , 10-B ) :   0.7274 
B(  7-B , 11-B ) :   1.0668 B(  8-B ,  9-B ) :   0.3544 B(  8-B , 10-B ) :   1.1678 
B(  9-B , 10-B ) :   0.1281 B(  9-B , 11-B ) :   1.1066 B( 10-B , 11-B ) :   0.4099 


-------
TIMINGS
-------

Total SCF time: 0 days 0 hours 0 min 4 sec 

Total time                  ....       4.683 sec
Sum of individual times     ....       4.318 sec  ( 92.2%)

SCF preparation             ....       0.534 sec  ( 11.4%)
Fock matrix formation       ....       3.264 sec  ( 69.7%)
  Startup                   ....       0.010 sec  (  0.3% of F)
  Split-RI-J                ....       1.118 sec  ( 34.2% of F)
  XC integration            ....       2.162 sec  ( 66.2% of F)
    XC Preparation          ....       0.000 sec  (  0.0% of XC)
    Basis function eval.    ....       0.466 sec  ( 21.6% of XC)
    Density eval.           ....       0.349 sec  ( 16.2% of XC)
    XC-Functional eval.     ....       0.061 sec  (  2.8% of XC)
    XC-Potential eval.      ....       0.411 sec  ( 19.0% of XC)
Diagonalization             ....       0.000 sec  (  0.0%)
Density matrix formation    ....       0.047 sec  (  1.0%)
Total Energy calculation    ....       0.029 sec  (  0.6%)
Population analysis         ....       0.178 sec  (  3.8%)
Orbital Transformation      ....       0.017 sec  (  0.4%)
Orbital Orthonormalization  ....       0.000 sec  (  0.0%)
DIIS solution               ....       0.020 sec  (  0.4%)
SOSCF solution              ....       0.228 sec  (  4.9%)
Finished LeanSCF after   5.0 sec

Maximum memory used throughout the entire LEANSCF-calculation: 13.0 MB


-------------------------------------------------------------------------------
                          DFT DISPERSION CORRECTION                            
                                                                               
                              DFTD3 V3.1  Rev 1                                
                          USING Becke-Johnson damping                          
-------------------------------------------------------------------------------
The BP86 functional is recognized
Active option DFTDOPT                   ...         4   

molecular C6(AA) [au] = 4227.730609 


            DFT-D V3
 parameters
 s6 scaling factor         :     1.0000 
 a1 scaling factor         :     0.3946 
 s8 scaling factor         :     3.2822 
 a2 scaling factor         :     4.8516 
 ad hoc parameters k1-k3   :    16.0000     1.3333    -4.0000 

 Edisp/kcal,au: -23.026940731597  -0.036695761940 
 E6   /kcal   :  -6.557399670 
 E8   /kcal   : -16.469541062 
 % E8         :  71.522922883 

-------------------------   ----------------
Dispersion correction           -0.036695762
-------------------------   ----------------


-------------------------   --------------------
FINAL SINGLE POINT ENERGY      -297.656069324688
-------------------------   --------------------

                                *** OPTIMIZATION RUN DONE ***



           ************************************************************
           *        Program running with 8 parallel MPI-processes     *
           *              working on a common directory               *
           ************************************************************

------------------------------------------------------------------------------
                              ORCA PROPERTY CALCULATIONS
------------------------------------------------------------------------------

GBWName                                 ... trunc_tetrahedron_nn1.80.gbw
Number of atoms                         ...     12
Number of basis functions               ...    168
Max core memory                         ...   2500 MB

Electric properties:
Dipole moment                           ... YES
Quadrupole moment                       ...  NO
Static polarizability (Dipole/Dipole)   ...  NO
Static polarizability (Dipole/Quad.)    ...  NO
Static polarizability (Quad./Quad.)     ...  NO
Static polarizability (Velocity)        ...  NO
Static hyperpolarizability              ...  NO

Atomic electric properties:
Dipole moment                           ...  NO
Quadrupole moment                       ...  NO
Static polarizability                   ...  NO

Choice of electric origin               ... Center of mass
Position of electric origin             ...    -0.000000     0.000000    -0.000000

General magnetic properties:
Magnetizability                         ...  NO

EPR properties:
g-Tensor (aka g-matrix)                 ...  NO
Zero-Field splitting spin-orbit         ...  NO
Zero-field splitting spin-spin          ...  NO
Hyperfine couplings                     ...  NO (   0 nuclei)
Quadrupole couplings                    ...  NO (   0 nuclei)
Contact density                         ...  NO (   0 nuclei)

NMR properties:
Chemical shifts                         ...  NO (   0 nuclei)
Spin-rotation constants                 ...  NO (   0 nuclei)
Spin-spin couplings                     ...  NO (   0 nuclei,    0 pairs)

Choice of magnetic origin               ... GIAO
Position of magnetic origin             ...     0.000000     0.000000     0.000000

Properties with geometric perturbations:
SCF Hessian                             ...  NO
IR spectrum                             ...  NO
VCD spectrum                            ...  NO
X-ray spectroscopy properties:
SCF XES/XAS/RIXS spectra                ...  NO

SCF SOC stabilization energy            ...  NO
Diagonal Born-Oppenheimer correction    ...  NO

-------------
DIPOLE MOMENT
-------------

Method             : SCF
Type of density    : Electron Density
Multiplicity       :   1
Irrep              :   0
Energy             :  -297.6193735627478532 Eh
Basis              : AO
                                X                 Y                 Z
Electronic contribution:      0.100607075       0.472372150      -0.613014647
Nuclear contribution   :     -0.000000000       0.000000000      -0.000000000
                        -----------------------------------------
Total Dipole Moment    :      0.100607075       0.472372150      -0.613014647
                        -----------------------------------------
Magnitude (a.u.)       :      0.780412833
Magnitude (Debye)      :      1.983651778



--------------------
Rotational spectrum 
--------------------
 
Rotational constants in cm-1:             0.071892             0.062463             0.044574 
Rotational constants in MHz :          2155.276840          1872.586070          1336.299870 

Dipole components along the rotational axes: 
x,y,z [a.u.] :     0.458048     0.242096    -0.583632 
x,y,z [Debye]:     1.164265     0.615358    -1.483474 

 

Dipole moment calculation done in   0.1 sec 

Maximum memory used throughout the entire PROP-calculation: 10.5 MB

--------------------------------
SUGGESTED CITATIONS FOR THIS RUN
--------------------------------

Below you find a list of papers that are relevant to this ORCA run
We neither can nor want to force you to cite these papers, but we appreciate if you do
You receive ORCA, which is the product of decades of hard work by many enthusiastic individuals, for free
The only thing we kindly ask in return is that you cite our papers,
We deeply appreciate it, if you show your appreciation for ORCA by not just citing the generic ORCA reference.

Please note that relegating all ORCA citations to the supporting information does *not* help us.
SI sections are not indexed - citations you put there will not count into any citation statistics
But we need these citations in order to attract the funding resources that allow us to do what we are doing

Therefore, if you are a happy ORCA user, please consider citing a few of the papers listed below in the main body of your paper

In addition to the list printed below, the program has created the file trunc_tetrahedron_nn1.80.bibtex that contains the list in bibtex format
You can import this file easily into all common literature databanks and citation aid programs

It goes without saying that in many instances, there are alternative algorithms to achieve similar
results as the ones you have gotten from ORCA. It is, of course, also the case that in some instances
ORCA just re-implements algorithms worked out by others. We are fully aware of that and we are also
fully appreciative of our colleagues work. Hence this citation list should not be read as indicating
that the listed papers, which are focused on our own work, are the only ones worth citing. It simply
meant to make it easier for users to cite ORCA specific papers. It is not a substitute for doing your
own literature research and citing the relevant literature in a scientifically appropriate manner.

List of essential papers. We consider these as the minimum necessary citations

  1. Neese, F.
     Software update: the ORCA program system, version 6.0
     WIRES Comput. Molec. Sci. 2025 15(1), e70019
     doi.org/10.1002/wcms.70019

List of papers to cite with high priority. The work reported in these papers was absolutely
necessary for this run to complete.
Our perspective: the developers of density functionals and basis sets usually get cited in chemistry papers
Good! But without the algorithms to do something with them, the functionals or basis sets would not do anything.
Hence, in our opinion, the algorithm design and method developments papers are equally worthy of getting cited

  1. Neese, F.
     An improvement of the resolution of the identity approximation for the formation of the Coulomb matrix
     J. Comp. Chem. 2003 24(14), 1740-1747
     doi.org/10.1002/jcc.10318
  2. Grimme, S.; Antony, J.; Ehrlich, S.; Krieg, H.
     A consistent and accurate ab initio parametrization of density functional dispersion correction (DFT-D) for the 94 elements H-Pu
     J. Chem. Phys. 2010 132 , 154104
     doi.org/10.1063/1.3382344
  3. Grimme, S.; Ehrlich, S.; Goerigk, L.
     Effect of the damping function in dispersion corrected density functional theory
     J. Comput. Chem. 2011 32(7), 1456-1465
     doi.org/10.1002/jcc.21759
  4. Helmich-Paris, B.
     A trust-region augmented Hessian implementation for restricted and unrestricted Hartree–Fock and Kohn–Sham methods
     J. Chem. Phys. 2021 154 , 164104
     doi.org/10.1063/5.0040798
  5. Neese, F.
     The SHARK Integral Generation and Digestion System
     J. Comp. Chem. 2022 44(3), 381
     doi.org/10.1002/jcc.26942

List of suggested additional citations. These are papers that are important in the 'surrounding' of 
of this run, or papers that preceded the highly important papers. If you like your results we are grateful for a citation.

  1. Neese, F.
     The ORCA program system
     WIRES Comput. Molec. Sci. 2012 2(1), 73-78
     doi.org/10.1002/wcms.81
  2. Neese, F.
     Software update: the ORCA program system, version 4.0
     WIRES Comput. Molec. Sci. 2018 8(1), 1-6
     doi.org/10.1002/wcms.1327
  3. Neese, F.; Wennmohs, F.; Becker, U.; Riplinger, C.
     The ORCA quantum chemistry program package
     J. Chem. Phys. 2020 152(22), 224108
     doi.org/10.1063/5.0004608
  4. Neese, F.
     Software update: The ORCA program system—Version 5.0
     WIRES Comput. Molec. Sci. 2022 12(1), e1606
     doi.org/10.1002/wcms.1606

List of optional additional citations

  1. Neese, F.
     Approximate second-order SCF convergence for spin unrestricted wavefunctions
     Chem. Phys. Lett. 2000 325(1-3), 93-98
     doi.org/10.1016/s0009-2614(00)00662-x

Timings for individual modules:

Sum of individual times          ...      866.175 sec (=  14.436 min)
Startup calculation              ...       98.725 sec (=   1.645 min)  11.4 %
SCF iterations                   ...      625.575 sec (=  10.426 min)  72.2 %
Property calculations            ...        0.837 sec (=   0.014 min)   0.1 %
SCF Gradient evaluation          ...      140.685 sec (=   2.345 min)  16.2 %
Geometry relaxation              ...        0.353 sec (=   0.006 min)   0.0 %
                             ****ORCA TERMINATED NORMALLY****
TOTAL RUN TIME: 0 days 0 hours 15 minutes 14 seconds 610 msec
