
                                 *****************
                                 * O   R   C   A *
                                 *****************

                                            #,                                       
                                            ###                                      
                                            ####                                     
                                            #####                                    
                                            ######                                   
                                           ########,                                 
                                     ,,################,,,,,                         
                               ,,#################################,,                 
                          ,,##########################################,,             
                       ,#########################################, ''#####,          
                    ,#############################################,,   '####,        
                  ,##################################################,,,,####,       
                ,###########''''           ''''###############################       
              ,#####''   ,,,,##########,,,,          '''####'''          '####       
            ,##' ,,,,###########################,,,                        '##       
           ' ,,###''''                  '''############,,,                           
         ,,##''                                '''############,,,,        ,,,,,,###''
      ,#''                                            '''#######################'''  
     '                                                          ''''####''''         
             ,#######,   #######,   ,#######,      ##                                
            ,#'     '#,  ##    ##  ,#'     '#,    #''#        ,####,    ,#,          
            ##       ##  ##   ,#'  ##            #'  '#       #'       ,# #          
            ##       ##  #######   ##           ,######,      #####,      #          
            '#,     ,#'  ##    ##  '#,     ,#' ,#      #,     #,   #      #          
             '#######'   ##     ##  '#######'  #'      '#     '####' #    #          



                #########################################################
                #                        -***-                          #
                #          Department of theory and spectroscopy        #
                #                                                       #
                #                      Frank Neese                      #
                #                                                       #
                #     Directorship, Architecture, Infrastructure        #
                #                    SHARK, DRIVERS                     #
                #        Core code/Algorithms in most modules           #
                #                                                       #
                #        Max Planck Institute fuer Kohlenforschung      #
                #                Kaiser Wilhelm Platz 1                 #
                #                 D-45470 Muelheim/Ruhr                 #
                #                      Germany                          #
                #                                                       #
                #                  All rights reserved                  #
                #                        -***-                          #
                #########################################################


                         Program Version 6.1.1  -  RELEASE   -
                                (GIT: $487d211c$)
                          ($2025-11-21 10:33:24 +0100$)
                                                                         
                                  - NO-DMRG VERSION -                    
                                                                         


 With contributions from (in alphabetic order):
[Max-Planck-Institut fuer Kohlenforschung]                               
  Daniel Aravena         : Magnetic Suceptibility                        
  Michael Atanasov       : Ab Initio Ligand Field Theory (pilot matlab implementation)
  Alexander A. Auer      : GIAO ZORA, VPT2 properties, NMR spectrum      
  Ute Becker             : All parallelization in ORCA, NUMFREQ, NUMCALC 
  Giovanni Bistoni       : ED, misc. LED, open-shell LED, HFLD           
  Dmytro Bykov           : pre 5.0 version of the SCF Hessian            
  Marcos Casanova-Páez   : Triplet and SCS-CIS(D). UHF-(DLPNO)-IP/EA/STEOM-CCSD. UHF-CVS-IP/STEOM-CCSD   
  Vijay G. Chilkuri      : MRCI spin determinant printing, contributions to CSF-ICE 
  Pauline Colinet        : FMM embedding                                 
  Dipayan Datta          : RHF DLPNO-CCSD density                        
  Achintya Kumar Dutta   : EOM-CC, STEOM-CC                              
  Nicolas Foglia         : Exact transition moments, OPA infrastructure, MCD improvements    
  Dmitry Ganyushin       : Spin-Orbit,Spin-Spin,Magnetic field MRCI      
  Miquel Garcia-Rates    : C-PCM and meta-GGA Hessian, CCSD/C-PCM, Gaussian charge scheme 
  Tiago L. C. Gouveia    : GS-ROHF, GS-ROCIS                             
  Yang Guo               : DLPNO-NEVPT2, F12-NEVPT2, CIM, IAO-localization        
  Andreas Hansen         : Spin unrestricted coupled pair/coupled cluster methods 
  Ingolf Harden          : AUTO-CI MPn and infrastructure                
  Benjamin Helmich-Paris : MC-RPA, TRAH-(SCF,CASSCF), AVAS, COSX integrals, SCF dyn. polar., MC-PDFT, srDFT 
  Lee Huntington         : MR-EOM, pCC                                   
  Robert Izsak           : Overlap fitted RIJCOSX, COSX-SCS-MP3, EOM     
  Riya Kayal             : Wick's Theorem for AUTO-CI, AUTO-CI UHF-CCSDT 
  Emily Kempfer          : AUTO-CI RHF CISDT and CCSDT, approximate NEVPT4
  Christian Kollmar      : KDIIS, OOCD, Brueckner-CCSD(T), CCSD density, CASPT2, CASPT2-K, improved NEVPT2 
  Axel Koslowski         : Symmetry handling                             
  Simone Kossmann        : meta-GGA functionals, TD-DFT gradient, OOMP2, (MP2 Hessian; deprecated post 5.0) 
  Lucas Lang             : DCDCAS, Hyperfine gauge corrections, ICE-SOC+SSC
  Marvin Lechner         : AUTO-CI (C++ implementation), FIC-MRCC        
  Spencer Leger          : CASSCF response                               
  Dagmar Lenk            : GEPOL surface, SMD, ORCA-2-JSON               
  Dimitrios Liakos       : Extrapolation schemes; Compound Job, Property file
  Dimitrios Manganas     : Further ROCIS development; embedding schemes. LFT, Crystal Embedding 
  Dimitrios Pantazis     : SARC Basis sets                               
  Anastasios Papadopoulos: AUTO-CI, single reference methods and gradients 
  Taras Petrenko         : pre 6.0 DFT Hessian and TD-DFT gradient,  ECA, NRVS 
  Petra Pikulova         : Analytic Raman intensities                    
  Peter Pinski           : DLPNO-MP2, DLPNO-MP2 Gradient                 
  Shashank Vittal Rao    : ES-AILFT, MagRelax                            
  Christoph Reimann      : Effective Core Potentials                     
  Marius Retegan         : Local ZFS, SOC                                
  Christoph Riplinger    : Optimizer, TS searches, QM/MM, DLPNO-CCSD(T), (RO)-DLPNO pert. Triples 
  Michael Roemelt        : Original ROCIS implementation, recursive CI coupling coefficients
  Masaaki Saitow         : Open-shell DLPNO-CCSD energy and density      
  Barbara Sandhoefer     : DKH picture change effects                    
  Yorick L. A. Schmerwitz: GMF and freeze-and-release deltaSCF, NEB S-IDPP initial path                    
  Kantharuban Sivalingam : CASSCF convergence/infrastructure, NEVPT2, NEVPT3, NEVPT4(SD), FIC-MRCI and CEPA variants
  Bernardo de Souza      : ESD, SOC TD-DFT                               
  Georgi L. Stoychev     : AutoAux, RI-MP2 NMR, DLPNO-MP2 response, X2C  
  Van Anh Tran           : RI-MP2 g-tensors                              
  Willem Van den Heuvel  : Paramagnetic NMR                              
  Zikuan Wang            : NOTCH, Electric field optimization            
  Frank Wennmohs         : Technical directorship and infrastructure     
  Hang Xu                : AUTO-CI-Response properties                   
                                                                         
[FACCTs GmbH]                                                            
  Markus Bursch, Nicolas Foglia, Miquel Garcia-Rates, Ingolf Harden, Hagen Neugebauer, Anastasios Papadopoulos, 
  Christoph Riplinger, Bernardo de Souza, Georgi L. Stoychev                                                    
                                                                 
  APM, various basis sets, CI-OPT, improved COSX, DLPNO-Multilevel,           
  DOCKER, DRACO, updates on ESD, Fragmentator, GOAT, IRC, LR-CPCM, L-BFGS, MBIS, meta-GGA TD-DFT gradient, ML-optimized integration grids, 
  MM, NACMEs, nearIR, NEB, NEB-TS, NL-DFT gradient (VV10), 2- and 3-layer-ONIOM, interface openCOSMO-RS, QMMM,   
  Crystal-QMMM, RESP, rigid body optimization, SF, symmetry and pop. for TD-DFT, various functionals, SOLVATOR                                   
                                                                         
[Other institutions]                                                     
  V. Asgeirsson          : NEB                                           
  Christoph Bannwarth    : sTDA-DFT, sTD-DFT, PBEh-3c, B97-3c, D3        
  Giovanni Bistoni       : ETS/NOCV, ADLD/ADEX, COVALED                  
  Martin Brehm           : Molecular dynamics                            
  Ronald Cardenas        : ETS/NOCV                                      
  Martina Colucci        : COVALED                                       
  Sebastian Ehlert       : rSCAN, r2SCAN, r2SCAN-3c, D4, dhf basis sets  
  Marvin Friede          : D4 for Fr, Ra, Ac-Lr                          
  Lars Goerigk           : TD-DFT with DH, B97 family of functionals     
  Stefan Grimme          : VdW corrections, initial TS optimization, DFT functionals, gCP, sTDA/sTD-DF 
  Waldemar Hujo          : DFT-NL                                        
  H. Jonsson             : NEB                                           
  Holger Kruse           : gCP                                           
  Marcel Mueller         : wB97X-3c, vDZP basis set                      
  Hagen Neugebauer       : wr2SCAN, Native XTB                           
  Gianluca Regni         : ADLD/ADEX                                     
  Tobias Risthaus        : pre 6.0 range-separated hybrid DFT and stability analysis
  Lukas Wittmann         : regularized MP2, r2SCAN double-hybrids, wr2SCAN        
                                                                         
We gratefully acknowledge several colleagues who have allowed us to      
interface, adapt or use parts of their codes:                            
  Ed Valeev, F. Pavosevic, A. Kumar             : LibInt (2-el integral package), F12 methods 
  Garnet Chan, S. Sharma, J. Yang, R. Olivares  : DMRG                   
  Ulf Ekstrom                                   : XCFun DFT Library      
  Mihaly Kallay                                 : mrcc  (arbitrary order and MRCC methods)
  Frank Weinhold                                : gennbo (NPA and NBO analysis)           
  Simon Mueller                                 : openCOSMO-RS                            
  Christopher J. Cramer and Donald G. Truhlar   : smd solvation model                     
  S Lehtola, MJT Oliveira, MAL Marques          : LibXC Library                           
  Liviu Ungur et al                             : ANISO software                          


 Your calculation uses the libint2 library for the computation of 2-el integrals
 For citations please refer to: http://libint.valeyev.net

 Your ORCA version has been built with support for libXC version: 7.0.0
 For citations please refer to: https://libxc.gitlab.io

 This ORCA versions uses:
   CBLAS   interface :  Fast vector & matrix operations
   LAPACKE interface :  Fast linear algebra routines
   SCALAPACK package :  Parallel linear algebra routines
   Shared memory     :  Shared parallel matrices
   BLAS/LAPACK       :  OpenBLAS 0.3.29  USE64BITINT DYNAMIC_ARCH NO_AFFINITY Zen SINGLE_THREADED
        Core in use  :  Zen
   Copyright (c) 2011-2014, The OpenBLAS Project


  ***********************************
  * Starting time: Thu Apr 23 17:53:08 2026
  * Host name:     vmi3233575
  * Process ID:    1381181
  * Working dir.:  /root/b12_scan/jobs/icosahedron_nn2.00_perturb0
  ***********************************

NOTE: MaxCore=2500 MB was set to SCF,MP2,MDCI,CIPSI,MRCI,RASCI and CIS
      => If you want to overwrite this, your respective input block should be placed after the MaxCore statement
Your calculation utilizes the atom-pairwise dispersion correction
with the Becke-Johnson damping scheme (D3BJ)


================================================================================

----- Orbital basis set information -----
Your calculation utilizes the basis: def2-SVP
   F. Weigend and R. Ahlrichs, Phys. Chem. Chem. Phys. 7, 3297 (2005).

----- AuxJ basis set information -----
Your calculation utilizes the auxiliary basis: def2/J
   H-Rn: F. Weigend, Phys. Chem. Chem. Phys. 8, 1057 (2006).
   Fr-Lr: K. Eichkorn, F. Weigend, O. Treutler, R. Ahlrichs; Theor. Chem. Acc. 97, 119 (1997).

================================================================================
                                        WARNINGS
                       Please study these warnings very carefully!
================================================================================


WARNING: Geometry Optimization
  ===> : Switching off AutoStart
         For restart on a previous wavefunction, please use MOREAD

================================================================================
                                       INPUT FILE
================================================================================
NAME = icosahedron_nn2.00_perturb0.inp
|  1> ! BP86 def2-SVP def2/J RI Opt TightSCF D3BJ
|  2> ! SlowConv
|  3> 
|  4> %pal nprocs 8 end
|  5> %maxcore 2500
|  6> 
|  7> %geom
|  8>   MaxIter 300
|  9> end
| 10> 
| 11> * xyz 0 1
| 12> B      0.01885953     -1.01981573     -1.52197059
| 13> B     -0.98426498     -1.69838439      0.05423926
| 14> B     -1.42243398      0.14206214     -1.10556029
| 15> B     -0.18981322     -1.09349117      1.62423289
| 16> B     -1.34875462      1.58521524     -0.18688664
| 17> B      1.50819389     -0.08163885     -1.04744502
| 18> B      0.06174458      1.15637701     -1.63731419
| 19> B      1.20496952     -1.71781319      0.05272651
| 20> B     -1.48251346      0.01410184      0.88847511
| 21> B     -0.13825881      0.93134113      1.65106326
| 22> B      0.84855727      1.58665765     -0.02388375
| 23> B      1.69916083      0.03219887      1.05330591
| 24> *
| 25> 
| 26>                          ****END OF INPUT****
================================================================================

                       *****************************
                       * Geometry Optimization Run *
                       *****************************

Geometry optimization settings:
Update method            Update   .... BFGS
Choice of coordinates    CoordSys .... (2022) Redundant Internals
Initial Hessian          InHess   .... Almloef's Model
Max. no of cycles        MaxIter  .... 300

Convergence Tolerances:
Energy Change            TolE     ....  5.0000e-06 Eh
Max. Gradient            TolMAXG  ....  3.0000e-04 Eh/bohr
RMS Gradient             TolRMSG  ....  1.0000e-04 Eh/bohr
Max. Displacement        TolMAXD  ....  4.0000e-03 bohr
RMS Displacement         TolRMSD  ....  2.0000e-03 bohr
Strict Convergence                .... False

------------------------------------------------------------------------------
                        ORCA OPTIMIZATION COORDINATE SETUP
------------------------------------------------------------------------------

The optimization will be done in redundant internal coordinates (2022)
Making redundant internal coordinates   ...  (2022 redundants) done
Evaluating the initial hessian          ...  (Almloef) done
Evaluating the coordinates              ...  done
Calculating the B-matrix                .... done
Calculating the G-matrix                .... done
The number of degrees of freedom        ....  184

    -----------------------------------------------------------------
                    Redundant Internal Coordinates


    -----------------------------------------------------------------
         Definition                    Initial Value    Approx d2E/dq
    -----------------------------------------------------------------
      1. B(B   1,B   0)                  1.9878         0.093261   
      2. B(B   2,B   0)                  1.8975         0.129902   
      3. B(B   3,B   1)                  1.8606         0.148771   
      4. B(B   4,B   2)                  1.7123         0.256515   
      5. B(B   5,B   0)                  1.8230         0.170800   
      6. B(B   6,B   2)                  1.8747         0.141291   
      7. B(B   6,B   5)                  1.9932         0.091413   
      8. B(B   6,B   4)                  2.0681         0.069417   
      9. B(B   7,B   5)                  1.9948         0.090863   
     10. B(B   7,B   0)                  2.0913         0.063741   
     11. B(B   8,B   4)                  1.9086         0.124740   
     12. B(B   8,B   3)                  1.8545         0.152157   
     13. B(B   8,B   2)                  1.9990         0.089472   
     14. B(B   8,B   1)                  1.9690         0.099926   
     15. B(B   9,B   3)                  2.0257         0.081135   
     16. B(B   9,B   8)                  1.7972         0.187814   
     17. B(B  10,B   9)                  2.0515         0.073786   
     18. B(B  10,B   6)                  1.8459         0.157037   
     19. B(B  10,B   5)                  2.0654         0.070107   
     20. B(B  11,B  10)                  2.0737         0.068012   
     21. B(B  11,B   7)                  2.0756         0.067548   
     22. A(B   5,B   0,B   7)           60.8191         0.249707   
     23. A(B   2,B   0,B   5)          104.3766         0.277807   
     24. A(B   1,B   0,B   7)           64.8627         0.229138   
     25. A(B   1,B   0,B   2)           69.6167         0.253641   
     26. A(B   1,B   0,B   5)          112.4300         0.264164   
     27. A(B   2,B   0,B   7)          118.0284         0.240053   
     28. A(B   3,B   1,B   8)           57.8446         0.261447   
     29. A(B   0,B   1,B   3)          110.0379         0.258774   
     30. A(B   0,B   1,B   8)           99.5999         0.244150   
     31. A(B   0,B   2,B   4)          126.9489         0.296011   
     32. A(B   6,B   2,B   8)          109.9604         0.255235   
     33. A(B   0,B   2,B   6)           70.5920         0.269873   
     34. A(B   4,B   2,B   8)           61.3198         0.279259   
     35. A(B   0,B   2,B   8)          101.6850         0.252103   
     36. A(B   4,B   2,B   6)           70.2514         0.299987   
     37. A(B   1,B   3,B   8)           64.0086         0.278666   
     38. A(B   1,B   3,B   9)          110.3046         0.253505   
     39. A(B   8,B   3,B   9)           54.9701         0.254345   
     40. A(B   6,B   4,B   8)          105.7986         0.241591   
     41. A(B   2,B   4,B   8)           66.7647         0.294120   
     42. A(B   2,B   4,B   6)           58.5552         0.268637   
     43. A(B   7,B   5,B  10)          109.9159         0.231349   
     44. A(B   0,B   5,B   6)           69.4977         0.263372   
     45. A(B   6,B   5,B  10)           54.0699         0.231543   
     46. A(B   0,B   5,B  10)          106.4845         0.253208   
     47. A(B   6,B   5,B   7)          124.2185         0.240160   
     48. A(B   0,B   5,B   7)           66.2516         0.263134   
     49. A(B   4,B   6,B   5)          114.5935         0.231224   
     50. A(B   2,B   6,B   5)           98.8891         0.256045   
     51. A(B   5,B   6,B  10)           64.9625         0.260088   
     52. A(B   4,B   6,B  10)           68.2459         0.249754   
     53. A(B   2,B   6,B  10)          102.4539         0.277808   
     54. A(B   2,B   6,B   4)           51.1934         0.245955   
     55. A(B   5,B   7,B  11)           62.4915         0.230156   
     56. A(B   0,B   7,B  11)          102.5104         0.219272   
     57. A(B   0,B   7,B   5)           52.9293         0.228315   
     58. A(B   2,B   8,B   4)           51.9155         0.250613   
     59. A(B   1,B   8,B   4)          117.3547         0.254706   
     60. A(B   2,B   8,B   3)          114.3953         0.258047   
     61. A(B   1,B   8,B   3)           58.1468         0.262328   
     62. A(B   1,B   8,B   2)           68.0026         0.242700   
     63. A(B   4,B   8,B   9)           76.4983         0.280147   
     64. A(B   3,B   8,B   9)           67.3617         0.288938   
     65. A(B   2,B   8,B   9)          111.5992         0.266297   
     66. A(B   1,B   8,B   9)          115.7471         0.270787   
     67. A(B   3,B   8,B   4)          131.7843         0.271251   
     68. A(B   8,B   9,B  10)          100.1592         0.258729   
     69. A(B   3,B   9,B  10)          108.7070         0.229362   
     70. A(B   3,B   9,B   8)           57.6682         0.262415   
     71. A(B   6,B  10,B  11)          117.0097         0.249012   
     72. A(B   5,B  10,B  11)           61.3765         0.222315   
     73. A(B   6,B  10,B   9)          115.7299         0.251991   
     74. A(B   5,B  10,B   9)          107.4705         0.224797   
     75. A(B   9,B  10,B  11)           62.2091         0.223867   
     76. A(B   5,B  10,B   6)           60.9676         0.250115   
     77. A(B   7,B  11,B  10)          106.4962         0.221198   
     78. D(B   3,B   1,B   0,B   5)      3.7842         0.010000   
     79. D(B   3,B   1,B   0,B   7)     42.8572         0.010000   
     80. D(B   8,B   1,B   0,B   2)    -34.7245         0.010000   
     81. D(B   8,B   1,B   0,B   5)     62.9290         0.010000   
     82. D(B   3,B   1,B   0,B   2)    -93.8694         0.010000   
     83. D(B   4,B   2,B   0,B   7)     52.4899         0.010000   
     84. D(B   4,B   2,B   0,B   1)     97.1592         0.010000   
     85. D(B   4,B   2,B   0,B   5)    -11.8040         0.010000   
     86. D(B   6,B   2,B   0,B   5)     32.6944         0.010000   
     87. D(B   6,B   2,B   0,B   7)     96.9882         0.010000   
     88. D(B   6,B   2,B   0,B   1)    141.6575         0.010000   
     89. D(B   9,B   3,B   1,B   8)    -30.5376         0.010000   
     90. D(B   8,B   3,B   1,B   0)     88.8767         0.010000   
     91. D(B   9,B   3,B   1,B   0)     58.3391         0.010000   
     92. D(B   6,B   4,B   2,B   0)     44.6176         0.010000   
     93. D(B   8,B   4,B   2,B   0)    -82.9585         0.010000   
     94. D(B   8,B   4,B   2,B   6)   -127.5761         0.010000   
     95. D(B   6,B   4,B   2,B   8)    127.5761         0.010000   
     96. D(B   6,B   5,B   0,B   7)   -145.1290         0.010000   
     97. D(B  10,B   5,B   0,B   1)    -64.1353         0.010000   
     98. D(B   7,B   5,B   0,B   2)    114.3605         0.010000   
     99. D(B   7,B   5,B   0,B   1)     40.8107         0.010000   
    100. D(B   6,B   5,B   0,B   2)    -30.7686         0.010000   
    101. D(B   6,B   5,B   0,B   1)   -104.3183         0.010000   
    102. D(B   5,B   6,B   2,B   4)    114.5053         0.010000   
    103. D(B   5,B   6,B   2,B   8)     66.7955         0.010000   
    104. D(B   5,B   6,B   2,B   0)    -28.9726         0.010000   
    105. D(B  10,B   6,B   2,B   0)    -95.1355         0.010000   
    106. D(B   4,B   6,B   2,B   8)    -47.7098         0.010000   
    107. D(B   2,B   6,B   4,B   8)     49.1875         0.010000   
    108. D(B   4,B   6,B   2,B   0)   -143.4778         0.010000   
    109. D(B   4,B   6,B   5,B  10)    -48.4198         0.010000   
    110. D(B   4,B   6,B   5,B   7)     42.4920         0.010000   
    111. D(B   2,B   6,B   5,B  10)    -99.6633         0.010000   
    112. D(B   2,B   6,B   5,B   0)     30.5105         0.010000   
    113. D(B  10,B   6,B   4,B   8)    -79.0465         0.010000   
    114. D(B  10,B   6,B   4,B   2)   -128.2340         0.010000   
    115. D(B   4,B   6,B   5,B   0)     81.7541         0.010000   
    116. D(B   5,B   6,B   4,B   8)    -32.1849         0.010000   
    117. D(B   5,B   6,B   4,B   2)    -81.3725         0.010000   
    118. D(B   2,B   6,B   5,B   7)     -8.7515         0.010000   
    119. D(B  11,B   7,B   5,B   0)   -134.3884         0.010000   
    120. D(B   0,B   7,B   5,B  10)     99.8063         0.010000   
    121. D(B   0,B   7,B   5,B   6)     40.3624         0.010000   
    122. D(B  11,B   7,B   0,B   5)     40.4841         0.010000   
    123. D(B  11,B   7,B   5,B   6)    -94.0260         0.010000   
    124. D(B  11,B   7,B   5,B  10)    -34.5821         0.010000   
    125. D(B  11,B   7,B   0,B   2)    -50.9421         0.010000   
    126. D(B  11,B   7,B   0,B   1)    -97.6555         0.010000   
    127. D(B   5,B   7,B   0,B   2)    -91.4262         0.010000   
    128. D(B   5,B   7,B   0,B   1)   -138.1396         0.010000   
    129. D(B   3,B   8,B   2,B   4)   -125.0397         0.010000   
    130. D(B   3,B   8,B   2,B   0)      0.8712         0.010000   
    131. D(B   1,B   8,B   2,B   6)   -108.5968         0.010000   
    132. D(B   1,B   8,B   2,B   4)   -161.1202         0.010000   
    133. D(B   1,B   8,B   2,B   0)    -35.2093         0.010000   
    134. D(B   9,B   8,B   1,B   0)    -71.1002         0.010000   
    135. D(B   4,B   8,B   1,B   3)    124.1801         0.010000   
    136. D(B   4,B   8,B   1,B   0)     16.4734         0.010000   
    137. D(B   3,B   8,B   1,B   0)   -107.7066         0.010000   
    138. D(B   2,B   8,B   1,B   3)    140.8441         0.010000   
    139. D(B   3,B   8,B   2,B   6)    -72.5163         0.010000   
    140. D(B   2,B   8,B   1,B   0)     33.1374         0.010000   
    141. D(B   9,B   8,B   4,B   2)    132.0005         0.010000   
    142. D(B   3,B   8,B   4,B   2)     90.1974         0.010000   
    143. D(B   2,B   8,B   4,B   6)    -44.6439         0.010000   
    144. D(B   1,B   8,B   4,B   6)    -24.9010         0.010000   
    145. D(B   1,B   8,B   4,B   2)     19.7429         0.010000   
    146. D(B   9,B   8,B   3,B   1)   -144.4122         0.010000   
    147. D(B   4,B   8,B   3,B   9)     44.6083         0.010000   
    148. D(B   4,B   8,B   3,B   1)    -99.8039         0.010000   
    149. D(B   2,B   8,B   3,B   9)    104.4067         0.010000   
    150. D(B   2,B   8,B   3,B   1)    -40.0055         0.010000   
    151. D(B   3,B   8,B   4,B   6)     45.5536         0.010000   
    152. D(B   1,B   8,B   3,B   9)    144.4122         0.010000   
    153. D(B   4,B   8,B   2,B   0)    125.9109         0.010000   
    154. D(B  10,B   9,B   8,B   3)    105.7953         0.010000   
    155. D(B  10,B   9,B   8,B   2)     -2.6375         0.010000   
    156. D(B  10,B   9,B   8,B   1)     72.5109         0.010000   
    157. D(B   3,B   9,B   8,B   4)   -147.4166         0.010000   
    158. D(B   3,B   9,B   8,B   2)   -108.4328         0.010000   
    159. D(B   3,B   9,B   8,B   1)    -33.2843         0.010000   
    160. D(B  10,B   9,B   3,B   8)    -90.3474         0.010000   
    161. D(B  10,B   9,B   3,B   1)    -56.4470         0.010000   
    162. D(B   8,B   9,B   3,B   1)     33.9003         0.010000   
    163. D(B  11,B  10,B   9,B   3)    -45.9644         0.010000   
    164. D(B   6,B  10,B   9,B   8)      3.3105         0.010000   
    165. D(B   6,B  10,B   9,B   3)     62.4489         0.010000   
    166. D(B   5,B  10,B   9,B   8)    -62.2899         0.010000   
    167. D(B   5,B  10,B   9,B   3)     -3.1516         0.010000   
    168. D(B  11,B  10,B   6,B   2)     67.9839         0.010000   
    169. D(B   9,B  10,B   6,B   5)    -96.5268         0.010000   
    170. D(B   9,B  10,B   6,B   4)     36.3917         0.010000   
    171. D(B   9,B  10,B   6,B   2)     -2.4267         0.010000   
    172. D(B   5,B  10,B   6,B   4)    132.9185         0.010000   
    173. D(B   5,B  10,B   6,B   2)     94.1000         0.010000   
    174. D(B  11,B  10,B   5,B   0)    105.1856         0.010000   
    175. D(B   9,B  10,B   5,B   7)     -8.1985         0.010000   
    176. D(B   9,B  10,B   5,B   6)    110.2329         0.010000   
    177. D(B   9,B  10,B   5,B   0)     61.9560         0.010000   
    178. D(B   6,B  10,B   5,B   7)   -118.4314         0.010000   
    179. D(B   6,B  10,B   5,B   0)    -48.2769         0.010000   
    180. D(B   7,B  11,B  10,B   9)     99.6453         0.010000   
    181. D(B   7,B  11,B  10,B   6)     -6.7437         0.010000   
    182. D(B   7,B  11,B  10,B   5)    -32.7498         0.010000   
    183. D(B  10,B  11,B   7,B   5)     33.6647         0.010000   
    184. D(B  10,B  11,B   7,B   0)     -2.0713         0.010000   
    -----------------------------------------------------------------

Number of atoms                         .... 12
Number of degrees of freedom            .... 184


         *************************************************************
         *                GEOMETRY OPTIMIZATION CYCLE   1            *
         *************************************************************
---------------------------------
CARTESIAN COORDINATES (ANGSTROEM)
---------------------------------
  B      0.018860   -1.019816   -1.521971
  B     -0.984265   -1.698384    0.054239
  B     -1.422434    0.142062   -1.105560
  B     -0.189813   -1.093491    1.624233
  B     -1.348755    1.585215   -0.186887
  B      1.508194   -0.081639   -1.047445
  B      0.061745    1.156377   -1.637314
  B      1.204970   -1.717813    0.052727
  B     -1.482513    0.014102    0.888475
  B     -0.138259    0.931341    1.651063
  B      0.848557    1.586658   -0.023884
  B      1.699161    0.032199    1.053306

----------------------------
CARTESIAN COORDINATES (A.U.)
----------------------------
  NO LB      ZA    FRAG     MASS         X           Y           Z
   0 B     5.0000    0    10.810    0.035639   -1.927172   -2.876108
   1 B     5.0000    0    10.810   -1.859991   -3.209481    0.102497
   2 B     5.0000    0    10.810   -2.688011    0.268459   -2.089206
   3 B     5.0000    0    10.810   -0.358695   -2.066399    3.069355
   4 B     5.0000    0    10.810   -2.548777    2.995623   -0.353165
   5 B     5.0000    0    10.810    2.850073   -0.154275   -1.979384
   6 B     5.0000    0    10.810    0.116680    2.185236   -3.094075
   7 B     5.0000    0    10.810    2.277062   -3.246196    0.099639
   8 B     5.0000    0    10.810   -2.801544    0.026649    1.678975
   9 B     5.0000    0    10.810   -0.261271    1.759980    3.120057
  10 B     5.0000    0    10.810    1.603541    2.998348   -0.045134
  11 B     5.0000    0    10.810    3.210949    0.060847    1.990460

--------------------------------
INTERNAL COORDINATES (ANGSTROEM)
--------------------------------
 B      0   0   0     0.000000000000     0.00000000     0.00000000
 B      1   0   0     1.987750411932     0.00000000     0.00000000
 B      1   2   0     1.897547023056    69.61666750     0.00000000
 B      2   1   3     1.860626078719   110.03785487   266.13063685
 B      3   1   2     1.712331975212   126.94887047    97.15918863
 B      1   2   3     1.823037907074   112.42996056    97.65359245
 B      3   1   2     1.874668734372    70.59202168   141.65753715
 B      6   1   2     1.994840566276    66.25159914    40.81069567
 B      4   2   1     1.854501468624    64.00862643    88.87672390
 B      9   4   2     1.797189240366    67.36169934   215.58781510
 B      7   3   1     1.845907208671   102.45389259   264.86447736
 B     11   7   3     2.073693824704   117.00969105    67.98392204

---------------------------
INTERNAL COORDINATES (A.U.)
---------------------------
 B      0   0   0     0.000000000000     0.00000000     0.00000000
 B      1   0   0     3.756303901140     0.00000000     0.00000000
 B      1   2   0     3.585844199814    69.61666750     0.00000000
 B      2   1   3     3.516073726411   110.03785487   266.13063685
 B      3   1   2     3.235838483507   126.94887047    97.15918863
 B      1   2   3     3.445042376126   112.42996056    97.65359245
 B      3   1   2     3.542610499788    70.59202168   141.65753715
 B      6   1   2     3.769702351097    66.25159914    40.81069567
 B      4   2   1     3.504499890654    64.00862643    88.87672390
 B      9   4   2     3.396195475121    67.36169934   215.58781510
 B      7   3   1     3.488259093019   102.45389259   264.86447736
 B     11   7   3     3.918713414294   117.00969105    67.98392204

---------------------
BASIS SET INFORMATION
---------------------
There are 1 groups of distinct atoms

 Group   1 Type B   : 7s4p1d contracted to 3s2p1d pattern {511/31/1}

Atom   0B    basis set group =>   1
Atom   1B    basis set group =>   1
Atom   2B    basis set group =>   1
Atom   3B    basis set group =>   1
Atom   4B    basis set group =>   1
Atom   5B    basis set group =>   1
Atom   6B    basis set group =>   1
Atom   7B    basis set group =>   1
Atom   8B    basis set group =>   1
Atom   9B    basis set group =>   1
Atom  10B    basis set group =>   1
Atom  11B    basis set group =>   1
---------------------------------
AUXILIARY/J BASIS SET INFORMATION
---------------------------------
There are 1 groups of distinct atoms

 Group   1 Type B   : 12s5p4d2f1g contracted to 6s4p3d1f1g pattern {711111/2111/211/2/1}

Atom   0B    basis set group =>   1
Atom   1B    basis set group =>   1
Atom   2B    basis set group =>   1
Atom   3B    basis set group =>   1
Atom   4B    basis set group =>   1
Atom   5B    basis set group =>   1
Atom   6B    basis set group =>   1
Atom   7B    basis set group =>   1
Atom   8B    basis set group =>   1
Atom   9B    basis set group =>   1
Atom  10B    basis set group =>   1
Atom  11B    basis set group =>   1


           ************************************************************
           *        Program running with 8 parallel MPI-processes     *
           *              working on a common directory               *
           ************************************************************
------------------------------------------------------------------------------
                             ORCA STARTUP CALCULATIONS
                           -- RI-GTO INTEGRALS CHOSEN --
------------------------------------------------------------------------------
------------------------------------------------------------------------------
                   ___                                                        
                  /   \      - P O W E R E D   B Y -                         
                 /     \                                                     
                 |  |  |   _    _      __       _____    __    __             
                 |  |  |  | |  | |    /  \     |  _  \  |  |  /  |          
                  \  \/   | |  | |   /    \    | | | |  |  | /  /          
                 / \  \   | |__| |  /  /\  \   | |_| |  |  |/  /          
                |  |  |   |  __  | /  /__\  \  |    /   |      \           
                |  |  |   | |  | | |   __   |  |    \   |  |\   \          
                \     /   | |  | | |  |  |  |  | |\  \  |  | \   \       
                 \___/    |_|  |_| |__|  |__|  |_| \__\ |__|  \__/        
                                                                              
                      - O R C A' S   B I G   F R I E N D -                    
                                      &                                       
                       - I N T E G R A L  F E E D E R -                       
                                                                              
 v1 FN, 2020, v2 2021, v3 2022-2024                                           
------------------------------------------------------------------------------


----------------------
SHARK INTEGRAL PACKAGE
----------------------

Number of atoms                             ...     12
Number of basis functions                   ...    168
Number of shells                            ...     72
Maximum angular momentum                    ...      2
Integral batch strategy                     ... SHARK/LIBINT Hybrid
RI-J (if used) integral strategy            ... SPLIT-RIJ (Revised 2003 algorithm where possible)
Printlevel                                  ...      1
Contraction scheme used                     ... SEGMENTED contraction
Prescreening option                         ... SCHWARTZ
   Thresh                                   ... 2.500e-11
   Tcut                                     ... 2.500e-12
   Tpresel                                  ... 2.500e-12 
Coulomb Range Separation                    ... NOT USED
Exchange Range Separation                   ... NOT USED
Multipole approximations                    ... NOT USED
Finite Nucleus Model                        ... NOT USED
CABS basis                                  ... NOT available
Auxiliary Coulomb fitting basis             ... AVAILABLE
   # of basis functions in Aux-J            ...    588
   # of shells in Aux-J                     ...    180
   Maximum angular momentum in Aux-J        ...      4
Auxiliary J/K fitting basis                 ... NOT available
Auxiliary Correlation fitting basis         ... NOT available
Auxiliary 'external' fitting basis          ... NOT available

Checking pre-screening integrals            ... done (  0.0 sec) Dimension = 72
   => SHARK Basis and OBASIS are compatible. Storing Pre-screening
Shell pair information
Shell pair cut-off parameter TPreSel        ...   2.5e-12
Total number of shell pairs                 ...      2628
Shell pairs after pre-screening             ...      2592
Total number of primitive shell pairs       ...     10596
Primitive shell pairs kept                  ...      7929
          la=0 lb=0:    630 shell pairs
          la=1 lb=0:    864 shell pairs
          la=1 lb=1:    300 shell pairs
          la=2 lb=0:    432 shell pairs
          la=2 lb=1:    288 shell pairs
          la=2 lb=2:     78 shell pairs

Checking whether 4 symmetric matrices of dimension 168 fit in memory
:Max Core in MB      =   2500.00
 MB in use           =      6.92
 MB left             =   2493.08
 MB needed           =      0.43
 Data fit in memory  = YES
Calculating RI/J V-Matrix + Cholesky decomp.... done (  0.0 sec)
Calculating Nuclear repulsion               ... done (  0.0 sec) ENN=    339.769278121493 Eh

Diagonalization of the overlap matrix:
Smallest eigenvalue                        ... 3.800e-04
Time for diagonalization                   ...    0.005 sec
Threshold for overlap eigenvalues          ... 1.000e-07
Number of eigenvalues below threshold      ... 0
Time for construction of square roots      ...    0.002 sec
Total time needed                          ...    0.011 sec

-------------------
DFT GRID GENERATION
-------------------

General Integration Accuracy     IntAcc      ... 4.388
Radial Grid Type                 RadialGrid  ... OptM3 with GC (2021)
Angular Grid (max. ang.)         AngularGrid ... 4 (Lebedev-302)
Angular grid pruning method      GridPruning ... 4 (adaptive)
Weight generation scheme         WeightScheme... mBecke (2022)
Basis function cutoff            BFCut       ... 1.0000e-11
Integration weight cutoff        WCut        ... 1.0000e-14
Partially contracted basis set               ... off
Rotationally invariant grid construction     ... off
Angular grids for H and He will be reduced by one unit

Total number of grid points                  ...    70747
Total number of batches                      ...     1111
Average number of points per batch           ...       63
Average number of grid points per atom       ...     5896
Grids setup in   0.8 sec
Initializing property integral containers    ... done (  0.0 sec)

SHARK setup successfully completed in   1.0 seconds

Maximum memory used throughout the entire STARTUP-calculation: 19.8 MB


           ************************************************************
           *        Program running with 8 parallel MPI-processes     *
           *              working on a common directory               *
           ************************************************************
-------------------------------------------------------------------------------
                                 ORCA GUESS
                   Start orbitals & Density for SCF / CASSCF
-------------------------------------------------------------------------------

------------
SCF SETTINGS
------------
Hamiltonian:
 Density Functional     Method          .... DFT(GTOs)
 Exchange Functional    Exchange        .... B88
   X-Alpha parameter    XAlpha          ....  0.666667
   Becke's b parameter  XBeta           ....  0.004200
 Correlation Functional Correlation     .... P86
 LDA part of GGA corr.  LDAOpt          .... PW91-LDA
 Gradients option       PostSCFGGA      .... off
   NL short-range parameter             ....  4.400000
 RI-approximation to the Coulomb term is turned on
   Number of AuxJ basis functions       .... 588


General Settings:
 Integral files         IntName         .... icosahedron_nn2.00_perturb0
 Hartree-Fock type      HFTyp           .... RHF
 Total Charge           Charge          ....    0
 Multiplicity           Mult            ....    1
 Number of Electrons    NEL             ....   60
 Basis Dimension        Dim             ....  168
 Nuclear Repulsion      ENuc            ....    339.7692781215 Eh

Convergence Acceleration:
 AO-DIIS                CNVDIIS         .... on
   Start iteration      DIISMaxIt       ....     0
   Startup error        DIISStart       ....  0.200000
   # of expansion vecs  DIISMaxEq       ....     5
   Bias factor          DIISBfac        ....   1.050
   Max. coefficient     DIISMaxC        ....  10.000
 MO-DIIS                CNVKDIIS        .... off
 Trust-Rad. Augm. Hess. CNVTRAH         .... auto
   Auto Start mean grad. ratio tolernc. ....  1.125000
   Auto Start start iteration           ....    50
   Auto Start num. interpolation iter.  ....    10
   Max. Number of Micro iterations      ....    24
   Max. Number of Macro iterations      .... Maxiter - #DIIS iter
   Number of Davidson start vectors     ....     2
   Converg. threshold    (grad. norm)   ....   1.000e-05
   Grad. Scal. Fac. for Micro threshold ....   0.100
   Minimum threshold for Micro iter.    ....   1.000e-02
   NR start threshold (gradient norm)   ....   1.000e-04
   Initial trust radius                 ....   0.400
   Minimum AH scaling param. (alpha)    ....   1.000
   Maximum AH scaling param. (alpha)    .... 1000.000
   Quad. conv. algorithm                .... NR
   White noise on init. David. guess    .... on
   Maximum white noise                  ....   0.010
   Pseudo random numbers                .... off
   Inactive MOs                         .... canonical
   Orbital update algorithm             .... Taylor
   Preconditioner                       .... Diag
   Full preconditioner red. dimension   ....   250
 SOSCF                 CNVSOSCF           .... on
   Start iteration     SOSCFMaxIt         ....   150
   Startup grad/error  SOSCFStart         ....  0.001000
   Hessian update      SOSCFHessUp        .... L-BFGS
   Autom. constraints  SOSCFAutoConstrain .... off
 Level Shifting         CNVShift        .... on
   Level shift para.    LevelShift      ....    0.2500
   Turn off err/grad.   ShiftErr        ....    0.0000
 Zerner damping         CNVZerner       .... off
 Static damping         CNVDamp         .... on
   Fraction old density DampFac         ....    0.8500
   Max. Damping (<1)    DampMax         ....    0.9800
   Min. Damping (>=0)   DampMin         ....    0.0000
   Turn off err/grad.   DampErr         ....    0.0300

SCF Procedure:
 Maximum # iterations   MaxIter         ....   125
 SCF integral mode      SCFMode         .... Direct
   Integral package                     .... SHARK and LIBINT hybrid scheme
 Reset frequency        DirectResetFreq ....    20
 Integral Threshold     Thresh          ....  2.500e-11 Eh
 Primitive CutOff       TCut            ....  2.500e-12 Eh

Convergence Tolerance:
 Convergence Check Mode ConvCheckMode   .... Total+1el-Energy
 Convergence forced     ConvForced      .... 0
 Energy Change          TolE            ....  1.000e-08 Eh
 1-El. energy change                    ....  1.000e-05 Eh
 Orbital Gradient       TolG            ....  1.000e-05
 Orbital Rotation angle TolX            ....  1.000e-05
 DIIS Error             TolErr          ....  5.000e-07

------------------------------
INITIAL GUESS: MODEL POTENTIAL
------------------------------
Loading Hartree-Fock densities                     ... done
Calculating cut-offs                               ... done
Initializing the effective Hamiltonian             ... done
Setting up the integral package (SHARK)            ... done
Starting the Coulomb interaction                   ... done (   0.0 sec)
Making the grid                                    ... done (   0.3 sec)
Mapping shells                                     ... done
Starting the XC term evaluation                    ... done (   0.1 sec)
  promolecular density results
     # of electrons  =     60.000333194
     EX              =    -45.404611473
     EC              =     -1.978942732
     EX+EC           =    -47.383554204
Transforming the Hamiltonian                       ... done (   0.0 sec)
Diagonalizing the Hamiltonian                      ... done (   0.0 sec)
Back transforming the eigenvectors                 ... done (   0.0 sec)
Now organizing SCF variables                       ... done
                      ------------------
                      INITIAL GUESS DONE (   0.4 sec)
                      ------------------
             **** ENERGY FILE WAS UPDATED (icosahedron_nn2.00_perturb0.en.tmp) ****
Finished Guess after   0.9 sec
Maximum memory used throughout the entire GUESS-calculation: 9.8 MB


           ************************************************************
           *        Program running with 8 parallel MPI-processes     *
           *              working on a common directory               *
           ************************************************************

-------------------------------------------------------------------------------------------
                                      ORCA LEAN-SCF
                              memory conserving SCF solver
-------------------------------------------------------------------------------------------

----------------------------------------D-I-I-S--------------------------------------------
Iteration    Energy (Eh)           Delta-E    RMSDP     MaxDP     DIISErr   Damp  Time(sec)
-------------------------------------------------------------------------------------------
               ***  Starting incremental Fock matrix formation  ***
    1    -297.0090489584088687     0.00e+00  9.62e-03  7.55e-02  8.24e-02  0.850   1.0
Warning: op=0 Small HOMO/LUMO gap (  -0.037) - skipping pre-diagonalization
         Will do a full diagonalization
    2    -297.0860963160642427    -7.70e-02  1.17e-02  1.35e-01  5.76e-02  0.850   0.4
                               ***Turning on AO-DIIS***
    3    -297.1248993447653106    -3.88e-02  7.64e-03  1.02e-01  3.96e-02  0.850   0.5
    4    -297.1450034719210294    -2.01e-02  5.23e-03  5.95e-02  2.83e-02  0.850   0.4
    5    -297.1595565025743895    -1.46e-02  2.60e-02  2.27e-01  1.97e-02  0.000   0.4
    6    -297.2119744992385790    -5.24e-02  5.08e-03  5.66e-02  2.03e-02  0.000   0.4
    7    -297.2225606256197921    -1.06e-02  2.51e-03  2.02e-02  9.73e-03  0.000   0.5
    8    -297.2245439908483036    -1.98e-03  1.44e-03  1.13e-02  4.39e-03  0.000   0.6
    9    -297.2252011703250787    -6.57e-04  1.19e-03  8.65e-03  2.39e-03  0.000   0.4
   10    -297.2254642435445362    -2.63e-04  1.02e-03  8.87e-03  1.57e-03  0.000   0.3
                              *** Initializing SOSCF ***
---------------------------------------S-O-S-C-F--------------------------------------
Iteration    Energy (Eh)           Delta-E    RMSDP     MaxDP     MaxGrad    Time(sec)
--------------------------------------------------------------------------------------
   11    -297.2255779982962736    -1.14e-04  6.68e-04  3.81e-03  7.00e-04     0.3
               *** Restarting incremental Fock matrix formation ***
   12    -297.2256408608071183    -6.29e-05  1.34e-03  8.35e-03  1.09e-03     0.3
   13    -297.2256658476877078    -2.50e-05  2.99e-03  1.82e-02  2.25e-03     0.3
   14    -297.2258087849716617    -1.43e-04  8.08e-04  7.70e-03  3.95e-04     0.3
   15    -297.2258016099678457     7.18e-06  4.81e-04  3.11e-03  8.55e-04     0.5
   16    -297.2258267505013123    -2.51e-05  4.96e-04  4.42e-03  4.20e-04     0.4
   17    -297.2258249571578403     1.79e-06  3.36e-04  2.82e-03  4.99e-04     0.3
   18    -297.2258391224127649    -1.42e-05  5.00e-04  4.17e-03  1.84e-04     0.4
   19    -297.2258289695270719     1.02e-05  2.09e-04  1.80e-03  4.79e-04     0.3
   20    -297.2258425854302573    -1.36e-05  2.31e-04  1.38e-03  1.27e-04     0.4
   21    -297.2258412701099246     1.32e-06  1.86e-04  1.47e-03  2.07e-04     0.4
   22    -297.2258445999701166    -3.33e-06  1.80e-04  1.12e-03  5.94e-05     0.4
   23    -297.2258451840809244    -5.84e-07  3.94e-04  2.43e-03  5.49e-05     0.4
   24    -297.2258458557735707    -6.72e-07  1.53e-04  1.01e-03  4.12e-05     0.8
   25    -297.2258459902230356    -1.34e-07  5.68e-05  3.95e-04  5.47e-05     0.4
   26    -297.2258461237137794    -1.33e-07  2.57e-05  1.41e-04  1.85e-05     0.4
   27    -297.2258461574423904    -3.37e-08  3.03e-05  2.69e-04  1.31e-05     0.3
   28    -297.2258461819332638    -2.45e-08  3.98e-05  2.54e-04  9.36e-06     0.3
   29    -297.2258461976619515    -1.57e-08  5.97e-05  3.84e-04  7.50e-06     0.4
   30    -297.2258462108696335    -1.32e-08  3.38e-05  2.11e-04  6.94e-06     0.3
   31    -297.2258462184187806    -7.55e-09  1.13e-05  8.07e-05  5.21e-06     0.3
                 **** Energy Check signals convergence ****
               *** Restarting incremental Fock matrix formation ***

               *****************************************************
               *                     SUCCESS                       *
               *           SCF CONVERGED AFTER  31 CYCLES          *
               *****************************************************

             **** ENERGY FILE WAS UPDATED (icosahedron_nn2.00_perturb0.en.tmp) ****

----------------
TOTAL SCF ENERGY
----------------

Total Energy       :       -297.22584622724838 Eh           -8087.92646 eV

Components:
Nuclear Repulsion  :        339.76927812149341 Eh            9245.59209 eV
Electronic Energy  :       -636.99512434874191 Eh          -17333.51855 eV
One Electron Energy:      -1066.99732861561256 Eh          -29034.47340 eV
Two Electron Energy:        430.00220426687071 Eh           11700.95484 eV

Virial components:
Potential Energy   :       -587.82443118293281 Eh          -15995.51597 eV
Kinetic Energy     :        290.59858495568437 Eh            7907.58951 eV
Virial Ratio       :          2.02280555245159

DFT components:
N(Alpha)           :       30.000054978423 electrons
N(Beta)            :       30.000054978423 electrons
N(Total)           :       60.000109956846 electrons
E(X)               :      -45.533752670225 Eh       
E(C)               :       -2.009035816445 Eh       
E(XC)              :      -47.542788486671 Eh       

---------------
SCF CONVERGENCE
---------------

  Last Energy change         ...    7.5491e-09  Tolerance :   1.0000e-08
  Last MAX-Density change    ...    8.0688e-05  Tolerance :   1.0000e-07
  Last RMS-Density change    ...    1.1342e-05  Tolerance :   5.0000e-09
  Last DIIS Error            ...    7.0042e-04  Tolerance :   5.0000e-07
  Last Orbital Gradient      ...    5.2145e-06  Tolerance :   1.0000e-05
  Last Orbital Rotation      ...    6.4349e-05  Tolerance :   1.0000e-05


----------------
ORBITAL ENERGIES
----------------

  NO   OCC          E(Eh)            E(eV) 
   0   2.0000      -6.653519      -181.0515 
   1   2.0000      -6.645554      -180.8347 
   2   2.0000      -6.645349      -180.8291 
   3   2.0000      -6.643070      -180.7671 
   4   2.0000      -6.641856      -180.7341 
   5   2.0000      -6.639897      -180.6808 
   6   2.0000      -6.634658      -180.5382 
   7   2.0000      -6.631326      -180.4475 
   8   2.0000      -6.626496      -180.3161 
   9   2.0000      -6.623653      -180.2388 
  10   2.0000      -6.620963      -180.1656 
  11   2.0000      -6.617664      -180.0758 
  12   2.0000      -0.667726       -18.1697 
  13   2.0000      -0.566581       -15.4175 
  14   2.0000      -0.558783       -15.2053 
  15   2.0000      -0.538450       -14.6520 
  16   2.0000      -0.440320       -11.9817 
  17   2.0000      -0.420923       -11.4539 
  18   2.0000      -0.410042       -11.1578 
  19   2.0000      -0.403146       -10.9702 
  20   2.0000      -0.391175       -10.6444 
  21   2.0000      -0.311619        -8.4796 
  22   2.0000      -0.304622        -8.2892 
  23   2.0000      -0.299836        -8.1589 
  24   2.0000      -0.282246        -7.6803 
  25   2.0000      -0.272591        -7.4176 
  26   2.0000      -0.227004        -6.1771 
  27   2.0000      -0.223404        -6.0791 
  28   2.0000      -0.217271        -5.9123 
  29   2.0000      -0.213900        -5.8205 
  30   0.0000      -0.212388        -5.7794 
  31   0.0000      -0.204874        -5.5749 
  32   0.0000      -0.167391        -4.5549 
  33   0.0000      -0.154409        -4.2017 
  34   0.0000      -0.148050        -4.0286 
  35   0.0000      -0.137510        -3.7418 
  36   0.0000      -0.130078        -3.5396 
  37   0.0000      -0.101969        -2.7747 
  38   0.0000      -0.082749        -2.2517 
  39   0.0000      -0.053332        -1.4512 
  40   0.0000      -0.047289        -1.2868 
*Only the first 10 virtual orbitals were printed.

                    ********************************
                    * MULLIKEN POPULATION ANALYSIS *
                    ********************************

-----------------------
MULLIKEN ATOMIC CHARGES
-----------------------
   0 B :   -0.013062
   1 B :    0.036753
   2 B :   -0.001921
   3 B :   -0.020664
   4 B :    0.037879
   5 B :   -0.020400
   6 B :    0.089475
   7 B :    0.021662
   8 B :   -0.030991
   9 B :    0.021272
  10 B :   -0.110359
  11 B :   -0.009643
Sum of atomic charges:   -0.0000000

--------------------------------
MULLIKEN REDUCED ORBITAL CHARGES
--------------------------------
  0 B s       :     3.048444  s :     3.048444
      pz      :     0.614904  p :     1.920254
      px      :     0.677658
      py      :     0.627692
      dz2     :     0.008222  d :     0.044365
      dxz     :     0.008700
      dyz     :     0.007517
      dx2y2   :     0.010327
      dxy     :     0.009599

  1 B s       :     3.261923  s :     3.261923
      pz      :     0.629261  p :     1.661937
      px      :     0.512068
      py      :     0.520608
      dz2     :     0.008274  d :     0.039387
      dxz     :     0.007372
      dyz     :     0.009301
      dx2y2   :     0.008334
      dxy     :     0.006107

  2 B s       :     3.067102  s :     3.067102
      pz      :     0.623208  p :     1.885457
      px      :     0.556810
      py      :     0.705438
      dz2     :     0.011013  d :     0.049362
      dxz     :     0.007467
      dyz     :     0.010394
      dx2y2   :     0.010666
      dxy     :     0.009822

  3 B s       :     3.272733  s :     3.272733
      pz      :     0.587972  p :     1.706866
      px      :     0.526064
      py      :     0.592831
      dz2     :     0.007774  d :     0.041065
      dxz     :     0.009060
      dyz     :     0.008473
      dx2y2   :     0.007808
      dxy     :     0.007951

  4 B s       :     3.337862  s :     3.337862
      pz      :     0.562248  p :     1.580133
      px      :     0.516272
      py      :     0.501613
      dz2     :     0.008434  d :     0.044126
      dxz     :     0.006352
      dyz     :     0.009508
      dx2y2   :     0.010599
      dxy     :     0.009233

  5 B s       :     3.039256  s :     3.039256
      pz      :     0.677186  p :     1.939910
      px      :     0.621841
      py      :     0.640883
      dz2     :     0.008647  d :     0.041234
      dxz     :     0.006929
      dyz     :     0.008262
      dx2y2   :     0.009450
      dxy     :     0.007946

  6 B s       :     3.202352  s :     3.202352
      pz      :     0.530565  p :     1.663752
      px      :     0.605009
      py      :     0.528178
      dz2     :     0.009357  d :     0.044421
      dxz     :     0.009694
      dyz     :     0.008608
      dx2y2   :     0.008647
      dxy     :     0.008115

  7 B s       :     3.437124  s :     3.437124
      pz      :     0.507366  p :     1.505252
      px      :     0.518723
      py      :     0.479164
      dz2     :     0.005886  d :     0.035961
      dxz     :     0.006530
      dyz     :     0.007798
      dx2y2   :     0.008487
      dxy     :     0.007260

  8 B s       :     2.871621  s :     2.871621
      pz      :     0.717966  p :     2.110846
      px      :     0.677372
      py      :     0.715507
      dz2     :     0.011443  d :     0.048523
      dxz     :     0.008716
      dyz     :     0.008904
      dx2y2   :     0.010858
      dxy     :     0.008602

  9 B s       :     3.174773  s :     3.174773
      pz      :     0.556992  p :     1.764482
      px      :     0.622200
      py      :     0.585291
      dz2     :     0.007312  d :     0.039473
      dxz     :     0.008667
      dyz     :     0.006854
      dx2y2   :     0.008296
      dxy     :     0.008343

 10 B s       :     3.274247  s :     3.274247
      pz      :     0.671482  p :     1.796588
      px      :     0.601551
      py      :     0.523555
      dz2     :     0.009754  d :     0.039524
      dxz     :     0.007084
      dyz     :     0.008573
      dx2y2   :     0.006917
      dxy     :     0.007197

 11 B s       :     3.495186  s :     3.495186
      pz      :     0.527684  p :     1.480386
      px      :     0.399040
      py      :     0.553663
      dz2     :     0.008192  d :     0.034072
      dxz     :     0.005153
      dyz     :     0.007155
      dx2y2   :     0.006421
      dxy     :     0.007150



                     *******************************
                     * LOEWDIN POPULATION ANALYSIS *
                     *******************************

----------------------
LOEWDIN ATOMIC CHARGES
----------------------
   0 B :    0.011164
   1 B :    0.018595
   2 B :   -0.031101
   3 B :   -0.025714
   4 B :   -0.019323
   5 B :    0.005167
   6 B :   -0.032625
   7 B :    0.002453
   8 B :   -0.021704
   9 B :    0.037980
  10 B :    0.035080
  11 B :    0.020026

-------------------------------
LOEWDIN REDUCED ORBITAL CHARGES
-------------------------------
  0 B s       :     2.770708  s :     2.770708
      pz      :     0.652714  p :     2.113574
      px      :     0.782130
      py      :     0.678729
      dz2     :     0.017808  d :     0.104555
      dxz     :     0.022255
      dyz     :     0.015447
      dx2y2   :     0.021212
      dxy     :     0.027833

  1 B s       :     2.885167  s :     2.885167
      pz      :     0.724511  p :     2.005277
      px      :     0.624695
      py      :     0.656072
      dz2     :     0.017954  d :     0.090960
      dxz     :     0.019164
      dyz     :     0.022953
      dx2y2   :     0.019274
      dxy     :     0.011615

  2 B s       :     2.801752  s :     2.801752
      pz      :     0.683769  p :     2.113251
      px      :     0.632537
      py      :     0.796945
      dz2     :     0.027746  d :     0.116098
      dxz     :     0.013242
      dyz     :     0.026776
      dx2y2   :     0.023420
      dxy     :     0.024914

  3 B s       :     2.885795  s :     2.885795
      pz      :     0.711537  p :     2.046435
      px      :     0.634214
      py      :     0.700684
      dz2     :     0.016668  d :     0.093485
      dxz     :     0.023129
      dyz     :     0.016325
      dx2y2   :     0.017768
      dxy     :     0.019596

  4 B s       :     2.895655  s :     2.895655
      pz      :     0.638343  p :     2.023765
      px      :     0.623518
      py      :     0.761904
      dz2     :     0.016732  d :     0.099902
      dxz     :     0.014578
      dyz     :     0.026646
      dx2y2   :     0.027043
      dxy     :     0.014902

  5 B s       :     2.765759  s :     2.765759
      pz      :     0.746014  p :     2.132130
      px      :     0.666736
      py      :     0.719380
      dz2     :     0.021700  d :     0.096944
      dxz     :     0.013093
      dyz     :     0.020925
      dx2y2   :     0.018848
      dxy     :     0.022378

  6 B s       :     2.867434  s :     2.867434
      pz      :     0.729700  p :     2.061420
      px      :     0.691928
      py      :     0.639791
      dz2     :     0.020728  d :     0.103771
      dxz     :     0.025556
      dyz     :     0.016382
      dx2y2   :     0.018404
      dxy     :     0.022700

  7 B s       :     3.014536  s :     3.014536
      pz      :     0.608539  p :     1.904746
      px      :     0.630051
      py      :     0.666157
      dz2     :     0.010615  d :     0.078265
      dxz     :     0.015012
      dyz     :     0.020148
      dx2y2   :     0.019985
      dxy     :     0.012505

  8 B s       :     2.715007  s :     2.715007
      pz      :     0.723049  p :     2.187934
      px      :     0.674350
      py      :     0.790535
      dz2     :     0.028363  d :     0.118763
      dxz     :     0.019120
      dyz     :     0.024132
      dx2y2   :     0.023938
      dxy     :     0.023210

  9 B s       :     2.805154  s :     2.805154
      pz      :     0.661802  p :     2.065370
      px      :     0.715445
      py      :     0.688123
      dz2     :     0.015737  d :     0.091496
      dxz     :     0.021420
      dyz     :     0.014291
      dx2y2   :     0.019553
      dxy     :     0.020495

 10 B s       :     2.894959  s :     2.894959
      pz      :     0.769569  p :     1.981786
      px      :     0.632710
      py      :     0.579507
      dz2     :     0.021126  d :     0.088175
      dxz     :     0.017616
      dyz     :     0.020601
      dx2y2   :     0.015088
      dxy     :     0.013743

 11 B s       :     3.038541  s :     3.038541
      pz      :     0.666163  p :     1.868264
      px      :     0.539542
      py      :     0.662559
      dz2     :     0.017909  d :     0.073169
      dxz     :     0.009450
      dyz     :     0.016149
      dx2y2   :     0.013369
      dxy     :     0.016292



                      *****************************
                      * MAYER POPULATION ANALYSIS *
                      *****************************

  NA   - Mulliken gross atomic population
  ZA   - Total nuclear charge
  QA   - Mulliken gross atomic charge
  VA   - Mayer's total valence
  BVA  - Mayer's bonded valence
  FA   - Mayer's free valence

  ATOM       NA         ZA         QA         VA         BVA        FA
  0 B      5.0131     5.0000    -0.0131     3.6389     3.6389    -0.0000
  1 B      4.9632     5.0000     0.0368     3.1845     3.1845    -0.0000
  2 B      5.0019     5.0000    -0.0019     3.3488     3.3488    -0.0000
  3 B      5.0207     5.0000    -0.0207     3.1015     3.1015    -0.0000
  4 B      4.9621     5.0000     0.0379     2.9562     2.9562     0.0000
  5 B      5.0204     5.0000    -0.0204     3.5366     3.5366     0.0000
  6 B      4.9105     5.0000     0.0895     3.0244     3.0244    -0.0000
  7 B      4.9783     5.0000     0.0217     2.8143     2.8143     0.0000
  8 B      5.0310     5.0000    -0.0310     3.6933     3.6933    -0.0000
  9 B      4.9787     5.0000     0.0213     3.4820     3.4820     0.0000
 10 B      5.1104     5.0000    -0.1104     3.2398     3.2398    -0.0000
 11 B      5.0096     5.0000    -0.0096     2.8126     2.8126     0.0000

  Mayer bond orders larger than 0.100000
B(  0-B ,  1-B ) :   0.7147 B(  0-B ,  2-B ) :   0.6674 B(  0-B ,  5-B ) :   1.0113 
B(  0-B ,  6-B ) :   0.3281 B(  0-B ,  7-B ) :   0.3880 B(  0-B ,  8-B ) :   0.1196 
B(  0-B ,  9-B ) :   0.1054 B(  1-B ,  2-B ) :   0.2677 B(  1-B ,  3-B ) :   0.6236 
B(  1-B ,  7-B ) :   0.3793 B(  1-B ,  8-B ) :   0.6175 B(  1-B , 10-B ) :   0.1013 
B(  1-B , 11-B ) :   0.2423 B(  2-B ,  3-B ) :   0.1178 B(  2-B ,  4-B ) :   0.6278 
B(  2-B ,  6-B ) :   0.5367 B(  2-B ,  8-B ) :   0.5623 B(  2-B , 10-B ) :   0.2532 
B(  2-B , 11-B ) :   0.1320 B(  3-B ,  6-B ) :   0.2587 B(  3-B ,  7-B ) :   0.4475 
B(  3-B ,  8-B ) :   0.4686 B(  3-B ,  9-B ) :   0.5512 B(  3-B , 11-B ) :   0.3829 
B(  4-B ,  6-B ) :   0.4541 B(  4-B ,  7-B ) :   0.3561 B(  4-B ,  8-B ) :   0.5298 
B(  4-B ,  9-B ) :   0.3437 B(  4-B , 10-B ) :   0.3968 B(  5-B ,  6-B ) :   0.4887 
B(  5-B ,  7-B ) :   0.5090 B(  5-B ,  8-B ) :   0.1295 B(  5-B ,  9-B ) :   0.1321 
B(  5-B , 10-B ) :   0.5421 B(  5-B , 11-B ) :   0.5044 B(  6-B , 10-B ) :   0.6233 
B(  6-B , 11-B ) :   0.1492 B(  7-B , 10-B ) :   0.1040 B(  7-B , 11-B ) :   0.3835 
B(  8-B ,  9-B ) :   0.9907 B(  9-B , 10-B ) :   0.6217 B(  9-B , 11-B ) :   0.4925 
B( 10-B , 11-B ) :   0.3717 

-------
TIMINGS
-------

Total SCF time: 0 days 0 hours 0 min 13 sec 

Total time                  ....      13.868 sec
Sum of individual times     ....      13.362 sec  ( 96.3%)

SCF preparation             ....       0.598 sec  (  4.3%)
Fock matrix formation       ....      11.035 sec  ( 79.6%)
  Startup                   ....       0.019 sec  (  0.2% of F)
  Split-RI-J                ....       3.418 sec  ( 31.0% of F)
  XC integration            ....       7.282 sec  ( 66.0% of F)
    XC Preparation          ....       0.000 sec  (  0.0% of XC)
    Basis function eval.    ....       1.461 sec  ( 20.1% of XC)
    Density eval.           ....       1.111 sec  ( 15.3% of XC)
    XC-Functional eval.     ....       0.181 sec  (  2.5% of XC)
    XC-Potential eval.      ....       1.381 sec  ( 19.0% of XC)
Diagonalization             ....       0.000 sec  (  0.0%)
Density matrix formation    ....       0.182 sec  (  1.3%)
Total Energy calculation    ....       0.205 sec  (  1.5%)
Population analysis         ....       0.033 sec  (  0.2%)
Orbital Transformation      ....       0.054 sec  (  0.4%)
Orbital Orthonormalization  ....       0.000 sec  (  0.0%)
DIIS solution               ....       0.537 sec  (  3.9%)
SOSCF solution              ....       0.719 sec  (  5.2%)
Finished LeanSCF after  13.9 sec

Maximum memory used throughout the entire LEANSCF-calculation: 10.2 MB


-------------------------------------------------------------------------------
                          DFT DISPERSION CORRECTION                            
                                                                               
                              DFTD3 V3.1  Rev 1                                
                          USING Becke-Johnson damping                          
-------------------------------------------------------------------------------
The BP86 functional is recognized
Active option DFTDOPT                   ...         4   

molecular C6(AA) [au] = 5197.207974 


            DFT-D V3
 parameters
 s6 scaling factor         :     1.0000 
 a1 scaling factor         :     0.3946 
 s8 scaling factor         :     3.2822 
 a2 scaling factor         :     4.8516 
 ad hoc parameters k1-k3   :    16.0000     1.3333    -4.0000 

 Edisp/kcal,au: -27.727201871426  -0.044186104051 
 E6   /kcal   :  -7.866800171 
 E8   /kcal   : -19.860401701 
 % E8         :  71.627861307 

-------------------------   ----------------
Dispersion correction           -0.044186104
-------------------------   ----------------


-------------------------   --------------------
FINAL SINGLE POINT ENERGY      -297.270032331299
-------------------------   --------------------



           ************************************************************
           *        Program running with 8 parallel MPI-processes     *
           *              working on a common directory               *
           ************************************************************
------------------------------------------------------------------------------
                         ORCA SCF GRADIENT CALCULATION
------------------------------------------------------------------------------

Nuc. rep. gradient        (SHARK) ... done (  0.0 sec)
HCore & Overlap gradient  (SHARK) ... done (  0.1 sec)
Split-RIJ-J gradient      (SHARK) ... done (  0.4 sec)
XC gradient                       ... done (  0.9 sec)
Dispersion correction             ... done (  0.1 sec)

-------------------
DISPERSION GRADIENT
-------------------

   1   B   :   -0.000598661   -0.001065178    0.001952882
   2   B   :    0.002715275    0.004631500    0.000922442
   3   B   :   -0.000056951   -0.000642710    0.001686333
   4   B   :   -0.000189734    0.005368111   -0.003455227
   5   B   :    0.005616199   -0.003229211    0.001852956
   6   B   :   -0.000869138    0.001848530    0.002396127
   7   B   :   -0.000717768    0.001021967    0.002735854
   8   B   :   -0.002493206    0.002006521    0.000686445
   9   B   :    0.003309632   -0.000197493   -0.002210984
  10   B   :    0.003430790   -0.004895695   -0.009072878
  11   B   :   -0.004881436   -0.007378845    0.003989541
  12   B   :   -0.005265002    0.002532503   -0.001483489

Difference to translation invariance:
           :    0.0000000000    0.0000000000    0.0000000000

Difference to rotation invariance:
           :    0.0000000000   -0.0000000000   -0.0000000000

Norm of the Dispersion gradient    ...    0.0204589904
RMS gradient                       ...    0.0034098317
MAX gradient                       ...    0.0090728776

------------------
CARTESIAN GRADIENT
------------------

   1   B   :   -0.003664365   -0.033391678   -0.054985290
   2   B   :   -0.055578595   -0.048313959   -0.005914351
   3   B   :   -0.041291799    0.001274160   -0.016127581
   4   B   :   -0.011706034   -0.028519210    0.055143074
   5   B   :   -0.050985947    0.038512856   -0.004861632
   6   B   :    0.060431715    0.005542741   -0.037864152
   7   B   :    0.006596521    0.034839143   -0.061907375
   8   B   :    0.050560789   -0.062732158   -0.000860208
   9   B   :   -0.048350381   -0.008485647    0.027289394
  10   B   :    0.002610560    0.041601470    0.051605865
  11   B   :    0.039504873    0.042472787    0.017194018
  12   B   :    0.051872663    0.017199496    0.031288238

Difference to translation invariance:
           :    0.0000000000    0.0000000000    0.0000000000

Difference to rotation invariance:
           :    0.0003288855    0.0006228474   -0.0011112269

Norm of the Cartesian gradient     ...    0.2270548143
RMS gradient                       ...    0.0378424691
MAX gradient                       ...    0.0627321580

-------
TIMINGS
-------

Total SCF gradient time     ....        1.468 sec

Densities                   ....       0.001 sec  (  0.1%)
One electron gradient       ....       0.052 sec  (  3.5%)
RI-J Coulomb gradient       ....       0.401 sec  ( 27.3%)
XC gradient                 ....       0.937 sec  ( 63.9%)

Maximum memory used throughout the entire SCFGRAD-calculation: 29.8 MB
------------------------------------------------------------------------------
                         ORCA GEOMETRY RELAXATION STEP
------------------------------------------------------------------------------

Reading the OPT-File                    .... done
Getting information on internals        .... done
Copying old internal coords+grads       .... done
Making the new internal coordinates     .... (2022 redundants) done
Validating the new internal coordinates .... (2022 redundants) done
Calculating the B-matrix                .... done
Calculating the G,G- and P matrices     .... done
Transforming gradient to internals      .... done
Projecting the internal gradient        .... done
Number of atoms                         ....  12
Number of internal coordinates          .... 184
Current Energy                          ....  -297.270032331 Eh
Current gradient norm                   ....     0.227054814 Eh/bohr
Maximum allowed component of the step   ....  0.300
Current trust radius                    ....  0.300
Evaluating the initial hessian          ....  (Almloef) done
Projecting the Hessian                  .... done
Forming the augmented Hessian           .... done
Diagonalizing the augmented Hessian     .... done
Last element of RFO vector              ....  0.780901567
Lowest eigenvalues of augmented Hessian:
 -0.166531217  0.019291890  0.032824832  0.034690624  0.041813359
Length of the computed step             ....  0.799914003
Warning: the length of the step is outside the trust region - taking restricted step instead
The input lambda is                     ....     0.018239
   iter:   5  x=   -0.050641  g=  113.105973 f(x)=     4.618497
   iter:  10  x=   -0.560134  g=    0.508000 f(x)=     0.051102
   iter:  15  x=   -0.599745  g=    0.258282 f(x)=     0.000000
The output lambda is                    ....    -0.599745 (15 iterations)
The final length of the internal step   ....  0.300000000
Converting the step to Cartesian space:
 Initial RMS(Int)=    0.0221162934
Transforming coordinates:
 Iter   0:  RMS(Cart)=    0.0613808940 RMS(Int)=    0.0220754002
done
Storing new coordinates                 .... done

                                .--------------------.
          ----------------------|Geometry convergence|-------------------------
          Item                value                   Tolerance       Converged
          ---------------------------------------------------------------------
          RMS gradient        0.0154686552            0.0001000000      NO
          MAX gradient        0.0658808323            0.0003000000      NO
          RMS step            0.0221162934            0.0020000000      NO
          MAX step            0.0954368332            0.0040000000      NO
          -------------------------------------------------------------------------
          ........................................................
          Max(Bonds)      0.0505      Max(Angles)    2.87
          Max(Dihed)        2.29      Max(Improp)    0.00
          ---------------------------------------------------------------------

The optimization has not yet converged - more geometry cycles are needed


    ---------------------------------------------------------------------------
                         Redundant Internal Coordinates
                            (Angstroem and degrees)

        Definition                    Value    dE/dq     Step     New-Value
    ----------------------------------------------------------------------------
     1. B(B   1,B   0)                1.9878  0.065881 -0.0505    1.9372   
     2. B(B   2,B   0)                1.8975  0.040112 -0.0300    1.8676   
     3. B(B   3,B   1)                1.8606  0.032937 -0.0233    1.8373   
     4. B(B   4,B   2)                1.7123  0.010931 -0.0080    1.7043   
     5. B(B   5,B   0)                1.8230  0.040825 -0.0294    1.7937   
     6. B(B   6,B   2)                1.8747  0.034123 -0.0247    1.8499   
     7. B(B   6,B   5)                1.9932  0.036443 -0.0267    1.9665   
     8. B(B   6,B   4)                2.0681  0.034833 -0.0263    2.0419   
     9. B(B   7,B   5)                1.9948  0.013831 -0.0115    1.9833   
    10. B(B   7,B   0)                2.0913  0.045324 -0.0350    2.0563   
    11. B(B   8,B   4)                1.9086  0.029101 -0.0215    1.8871   
    12. B(B   8,B   3)                1.8545  0.021864 -0.0151    1.8394   
    13. B(B   8,B   2)                1.9990  0.024799 -0.0190    1.9801   
    14. B(B   8,B   1)                1.9690  0.027355 -0.0205    1.9484   
    15. B(B   9,B   3)                2.0257  0.027692 -0.0207    2.0050   
    16. B(B   9,B   8)                1.7972  0.049696 -0.0339    1.7633   
    17. B(B  10,B   9)                2.0515  0.063416 -0.0489    2.0026   
    18. B(B  10,B   6)                1.8459  0.043908 -0.0313    1.8146   
    19. B(B  10,B   5)                2.0654  0.033260 -0.0254    2.0400   
    20. B(B  11,B  10)                2.0737  0.031858 -0.0252    2.0485   
    21. B(B  11,B   7)                2.0756  0.040369 -0.0322    2.0434   
    22. A(B   5,B   0,B   7)           60.82 -0.009492    0.73     61.55   
    23. A(B   2,B   0,B   5)          104.38  0.006012   -0.43    103.94   
    24. A(B   1,B   0,B   7)           64.86  0.034922   -2.87     62.00   
    25. A(B   1,B   0,B   2)           69.62 -0.008881    0.73     70.35   
    26. A(B   1,B   0,B   5)          112.43  0.016961   -1.39    111.04   
    27. A(B   2,B   0,B   7)          118.03  0.020396   -1.68    116.35   
    28. A(B   3,B   1,B   8)           57.84 -0.002217    0.20     58.05   
    29. A(B   0,B   1,B   3)          110.04  0.001743   -0.24    109.80   
    30. A(B   0,B   1,B   8)           99.60 -0.002008    0.15     99.75   
    31. A(B   0,B   2,B   4)          126.95  0.003318   -0.34    126.61   
    32. A(B   6,B   2,B   8)          109.96  0.006864   -0.61    109.35   
    33. A(B   0,B   2,B   6)           70.59 -0.003276    0.21     70.80   
    34. A(B   4,B   2,B   8)           61.32  0.003193   -0.24     61.08   
    35. A(B   0,B   2,B   8)          101.68  0.007040   -0.61    101.07   
    36. A(B   4,B   2,B   6)           70.25  0.002806   -0.26     69.99   
    37. A(B   1,B   3,B   8)           64.01 -0.000576   -0.01     64.00   
    38. A(B   1,B   3,B   9)          110.30  0.003663   -0.24    110.06   
    39. A(B   8,B   3,B   9)           54.97  0.008184   -0.57     54.40   
    40. A(B   6,B   4,B   8)          105.80  0.005061   -0.44    105.36   
    41. A(B   2,B   4,B   8)           66.76  0.000564   -0.07     66.69   
    42. A(B   2,B   4,B   6)           58.56  0.002824   -0.20     58.36   
    43. A(B   7,B   5,B  10)          109.92  0.002377   -0.21    109.71   
    44. A(B   0,B   5,B   6)           69.50 -0.003496    0.21     69.71   
    45. A(B   6,B   5,B  10)           54.07  0.003617   -0.24     53.83   
    46. A(B   0,B   5,B  10)          106.48 -0.004941    0.40    106.89   
    47. A(B   6,B   5,B   7)          124.22  0.008772   -0.81    123.41   
    48. A(B   0,B   5,B   7)           66.25  0.005679   -0.49     65.76   
    49. A(B   4,B   6,B   5)          114.59  0.014437   -1.17    113.42   
    50. A(B   2,B   6,B   5)           98.89  0.009795   -0.75     98.14   
    51. A(B   5,B   6,B  10)           64.96 -0.003093    0.19     65.16   
    52. A(B   4,B   6,B  10)           68.25  0.014277   -1.12     67.13   
    53. A(B   2,B   6,B  10)          102.45  0.003559   -0.24    102.21   
    54. A(B   2,B   6,B   4)           51.19 -0.005630    0.45     51.65   
    55. A(B   5,B   7,B  11)           62.49  0.000680   -0.05     62.44   
    56. A(B   0,B   7,B  11)          102.51  0.002901   -0.19    102.32   
[...]
      dyz     :     0.015139
      dx2y2   :     0.011347
      dxy     :     0.011557

 10 B s       :     2.516311  s :     2.516311
      pz      :     0.846662  p :     2.379355
      px      :     0.804771
      py      :     0.727922
      dz2     :     0.016234  d :     0.074085
      dxz     :     0.012235
      dyz     :     0.014702
      dx2y2   :     0.016316
      dxy     :     0.014599

 11 B s       :     2.518093  s :     2.518093
      pz      :     0.794531  p :     2.376964
      px      :     0.738357
      py      :     0.844076
      dz2     :     0.014523  d :     0.074040
      dxz     :     0.013738
      dyz     :     0.015752
      dx2y2   :     0.013451
      dxy     :     0.016576



                     *******************************
                     * LOEWDIN POPULATION ANALYSIS *
                     *******************************

----------------------
LOEWDIN ATOMIC CHARGES
----------------------
   0 B :   -0.030815
   1 B :    0.038956
   2 B :    0.037816
   3 B :   -0.038970
   4 B :   -0.042804
   5 B :    0.035792
   6 B :   -0.038985
   7 B :   -0.042804
   8 B :    0.035740
   9 B :   -0.030803
  10 B :    0.039054
  11 B :    0.037823

-------------------------------
LOEWDIN REDUCED ORBITAL CHARGES
-------------------------------
  0 B s       :     2.657096  s :     2.657096
      pz      :     0.716244  p :     2.199693
      px      :     0.753306
      py      :     0.730143
      dz2     :     0.035775  d :     0.174026
      dxz     :     0.040821
      dyz     :     0.032700
      dx2y2   :     0.031100
      dxy     :     0.033631

  1 B s       :     2.569728  s :     2.569728
      pz      :     0.782572  p :     2.204614
      px      :     0.746221
      py      :     0.675821
      dz2     :     0.042634  d :     0.186702
      dxz     :     0.034638
      dyz     :     0.039634
      dx2y2   :     0.040773
      dxy     :     0.029023

  2 B s       :     2.570925  s :     2.570925
      pz      :     0.741393  p :     2.204543
      px      :     0.680162
      py      :     0.782988
      dz2     :     0.039664  d :     0.186715
      dxz     :     0.026768
      dyz     :     0.044584
      dx2y2   :     0.030956
      dxy     :     0.044744

  3 B s       :     2.666922  s :     2.666922
      pz      :     0.721882  p :     2.199256
      px      :     0.747624
      py      :     0.729751
      dz2     :     0.036205  d :     0.172791
      dxz     :     0.040758
      dyz     :     0.032092
      dx2y2   :     0.030113
      dxy     :     0.033623

  4 B s       :     2.672866  s :     2.672866
      pz      :     0.728062  p :     2.198081
      px      :     0.741788
      py      :     0.728232
      dz2     :     0.032797  d :     0.171857
      dxz     :     0.030776
      dyz     :     0.037831
      dx2y2   :     0.043287
      dxy     :     0.027166

  5 B s       :     2.574727  s :     2.574727
      pz      :     0.750174  p :     2.203818
      px      :     0.672674
      py      :     0.780970
      dz2     :     0.037761  d :     0.185664
      dxz     :     0.029390
      dyz     :     0.044470
      dx2y2   :     0.029608
      dxy     :     0.044434

  6 B s       :     2.667547  s :     2.667547
      pz      :     0.721836  p :     2.198794
      px      :     0.747658
      py      :     0.729300
      dz2     :     0.036169  d :     0.172644
      dxz     :     0.040750
      dyz     :     0.032078
      dx2y2   :     0.030066
      dxy     :     0.033582

  7 B s       :     2.672628  s :     2.672628
      pz      :     0.728684  p :     2.198274
      px      :     0.741747
      py      :     0.727843
      dz2     :     0.032769  d :     0.171903
      dxz     :     0.030838
      dyz     :     0.037846
      dx2y2   :     0.043280
      dxy     :     0.027170

  8 B s       :     2.574672  s :     2.574672
      pz      :     0.750021  p :     2.203894
      px      :     0.672752
      py      :     0.781121
      dz2     :     0.037749  d :     0.185694
      dxz     :     0.029402
      dyz     :     0.044491
      dx2y2   :     0.029603
      dxy     :     0.044448

  9 B s       :     2.657174  s :     2.657174
      pz      :     0.715919  p :     2.199643
      px      :     0.753303
      py      :     0.730422
      dz2     :     0.035737  d :     0.173986
      dxz     :     0.040823
      dyz     :     0.032709
      dx2y2   :     0.031101
      dxy     :     0.033616

 10 B s       :     2.569882  s :     2.569882
      pz      :     0.782165  p :     2.204401
      px      :     0.746194
      py      :     0.676042
      dz2     :     0.042675  d :     0.186664
      dxz     :     0.034598
      dyz     :     0.039625
      dx2y2   :     0.040743
      dxy     :     0.029023

 11 B s       :     2.570871  s :     2.570871
      pz      :     0.741133  p :     2.204670
      px      :     0.680467
      py      :     0.783069
      dz2     :     0.039641  d :     0.186636
      dxz     :     0.026774
      dyz     :     0.044516
      dx2y2   :     0.030957
      dxy     :     0.044749



                      *****************************
                      * MAYER POPULATION ANALYSIS *
                      *****************************

  NA   - Mulliken gross atomic population
  ZA   - Total nuclear charge
  QA   - Mulliken gross atomic charge
  VA   - Mayer's total valence
  BVA  - Mayer's bonded valence
  FA   - Mayer's free valence

  ATOM       NA         ZA         QA         VA         BVA        FA
  0 B      5.0212     5.0000    -0.0212     3.8188     3.8188    -0.0000
  1 B      4.9700     5.0000     0.0300     4.3445     4.3445     0.0000
  2 B      4.9684     5.0000     0.0316     4.3338     4.3338    -0.0000
  3 B      5.0297     5.0000    -0.0297     3.7589     3.7589     0.0000
  4 B      5.0358     5.0000    -0.0358     3.7282     3.7282     0.0000
  5 B      4.9742     5.0000     0.0258     4.3217     4.3217    -0.0000
  6 B      5.0309     5.0000    -0.0309     3.7596     3.7596    -0.0000
  7 B      5.0354     5.0000    -0.0354     3.7279     3.7279    -0.0000
  8 B      4.9742     5.0000     0.0258     4.3219     4.3219    -0.0000
  9 B      5.0214     5.0000    -0.0214     3.8189     3.8189    -0.0000
 10 B      4.9698     5.0000     0.0302     4.3431     4.3431     0.0000
 11 B      4.9691     5.0000     0.0309     4.3352     4.3352    -0.0000

  Mayer bond orders larger than 0.100000
B(  0-B ,  1-B ) :   0.5816 B(  0-B ,  2-B ) :   0.5614 B(  0-B ,  3-B ) :   0.2534 
B(  0-B ,  4-B ) :   0.2591 B(  0-B ,  5-B ) :   0.8731 B(  0-B ,  6-B ) :   0.2545 
B(  0-B ,  7-B ) :   0.2486 B(  0-B ,  8-B ) :   0.1818 B(  0-B ,  9-B ) :   0.2887 
B(  0-B , 10-B ) :   0.1581 B(  0-B , 11-B ) :   0.1584 B(  1-B ,  2-B ) :   0.6977 
B(  1-B ,  3-B ) :   0.5770 B(  1-B ,  4-B ) :   0.1725 B(  1-B ,  5-B ) :   0.1459 
B(  1-B ,  6-B ) :   0.1600 B(  1-B ,  7-B ) :   0.8106 B(  1-B ,  8-B ) :   0.7067 
B(  1-B ,  9-B ) :   0.1585 B(  1-B , 10-B ) :   0.1898 B(  1-B , 11-B ) :   0.1442 
B(  2-B ,  3-B ) :   0.1750 B(  2-B ,  4-B ) :   0.5549 B(  2-B ,  5-B ) :   0.1471 
B(  2-B ,  6-B ) :   0.8328 B(  2-B ,  7-B ) :   0.1603 B(  2-B ,  8-B ) :   0.7132 
B(  2-B ,  9-B ) :   0.1583 B(  2-B , 10-B ) :   0.1435 B(  2-B , 11-B ) :   0.1895 
B(  3-B ,  4-B ) :   0.2693 B(  3-B ,  5-B ) :   0.1637 B(  3-B ,  6-B ) :   0.3172 
B(  3-B ,  7-B ) :   0.2367 B(  3-B ,  8-B ) :   0.5209 B(  3-B ,  9-B ) :   0.2548 
B(  3-B , 10-B ) :   0.1598 B(  3-B , 11-B ) :   0.8310 B(  4-B ,  5-B ) :   0.1632 
B(  4-B ,  6-B ) :   0.2363 B(  4-B ,  7-B ) :   0.3335 B(  4-B ,  8-B ) :   0.5183 
B(  4-B ,  9-B ) :   0.2485 B(  4-B , 10-B ) :   0.8123 B(  4-B , 11-B ) :   0.1603 
B(  5-B ,  6-B ) :   0.5215 B(  5-B ,  7-B ) :   0.5173 B(  5-B ,  8-B ) :   0.1878 
B(  5-B ,  9-B ) :   0.1818 B(  5-B , 10-B ) :   0.7073 B(  5-B , 11-B ) :   0.7130 
B(  6-B ,  7-B ) :   0.2695 B(  6-B ,  8-B ) :   0.1640 B(  6-B ,  9-B ) :   0.2529 
B(  6-B , 10-B ) :   0.5762 B(  6-B , 11-B ) :   0.1747 B(  7-B ,  8-B ) :   0.1637 
B(  7-B ,  9-B ) :   0.2598 B(  7-B , 10-B ) :   0.1724 B(  7-B , 11-B ) :   0.5554 
B(  8-B ,  9-B ) :   0.8727 B(  8-B , 10-B ) :   0.1455 B(  8-B , 11-B ) :   0.1475 
B(  9-B , 10-B ) :   0.5798 B(  9-B , 11-B ) :   0.5631 B( 10-B , 11-B ) :   0.6982 


-------
TIMINGS
-------

Total SCF time: 0 days 0 hours 0 min 5 sec 

Total time                  ....       5.199 sec
Sum of individual times     ....       4.695 sec  ( 90.3%)

SCF preparation             ....       0.490 sec  (  9.4%)
Fock matrix formation       ....       3.594 sec  ( 69.1%)
  Startup                   ....       0.007 sec  (  0.2% of F)
  Split-RI-J                ....       1.283 sec  ( 35.7% of F)
  XC integration            ....       2.503 sec  ( 69.6% of F)
    XC Preparation          ....       0.000 sec  (  0.0% of XC)
    Basis function eval.    ....       0.574 sec  ( 22.9% of XC)
    Density eval.           ....       0.418 sec  ( 16.7% of XC)
    XC-Functional eval.     ....       0.064 sec  (  2.5% of XC)
    XC-Potential eval.      ....       0.512 sec  ( 20.5% of XC)
Diagonalization             ....       0.000 sec  (  0.0%)
Density matrix formation    ....       0.061 sec  (  1.2%)
Total Energy calculation    ....       0.026 sec  (  0.5%)
Population analysis         ....       0.094 sec  (  1.8%)
Orbital Transformation      ....       0.174 sec  (  3.3%)
Orbital Orthonormalization  ....       0.000 sec  (  0.0%)
DIIS solution               ....       0.018 sec  (  0.4%)
SOSCF solution              ....       0.238 sec  (  4.6%)
Finished LeanSCF after   5.3 sec

Maximum memory used throughout the entire LEANSCF-calculation: 11.1 MB


-------------------------------------------------------------------------------
                          DFT DISPERSION CORRECTION                            
                                                                               
                              DFTD3 V3.1  Rev 1                                
                          USING Becke-Johnson damping                          
-------------------------------------------------------------------------------
The BP86 functional is recognized
Active option DFTDOPT                   ...         4   

molecular C6(AA) [au] = 4036.536167 


            DFT-D V3
 parameters
 s6 scaling factor         :     1.0000 
 a1 scaling factor         :     0.3946 
 s8 scaling factor         :     3.2822 
 a2 scaling factor         :     4.8516 
 ad hoc parameters k1-k3   :    16.0000     1.3333    -4.0000 

 Edisp/kcal,au: -23.924903574064  -0.038126756664 
 E6   /kcal   :  -6.812613168 
 E8   /kcal   : -17.112290406 
 % E8         :  71.525013059 

-------------------------   ----------------
Dispersion correction           -0.038126757
-------------------------   ----------------


-------------------------   --------------------
FINAL SINGLE POINT ENERGY      -297.634894455567
-------------------------   --------------------

                                *** OPTIMIZATION RUN DONE ***



           ************************************************************
           *        Program running with 8 parallel MPI-processes     *
           *              working on a common directory               *
           ************************************************************

------------------------------------------------------------------------------
                              ORCA PROPERTY CALCULATIONS
------------------------------------------------------------------------------

GBWName                                 ... icosahedron_nn2.00_perturb0.gbw
Number of atoms                         ...     12
Number of basis functions               ...    168
Max core memory                         ...   2500 MB

Electric properties:
Dipole moment                           ... YES
Quadrupole moment                       ...  NO
Static polarizability (Dipole/Dipole)   ...  NO
Static polarizability (Dipole/Quad.)    ...  NO
Static polarizability (Quad./Quad.)     ...  NO
Static polarizability (Velocity)        ...  NO
Static hyperpolarizability              ...  NO

Atomic electric properties:
Dipole moment                           ...  NO
Quadrupole moment                       ...  NO
Static polarizability                   ...  NO

Choice of electric origin               ... Center of mass
Position of electric origin             ...    -0.035362    -0.025699    -0.031341

General magnetic properties:
Magnetizability                         ...  NO

EPR properties:
g-Tensor (aka g-matrix)                 ...  NO
Zero-Field splitting spin-orbit         ...  NO
Zero-field splitting spin-spin          ...  NO
Hyperfine couplings                     ...  NO (   0 nuclei)
Quadrupole couplings                    ...  NO (   0 nuclei)
Contact density                         ...  NO (   0 nuclei)

NMR properties:
Chemical shifts                         ...  NO (   0 nuclei)
Spin-rotation constants                 ...  NO (   0 nuclei)
Spin-spin couplings                     ...  NO (   0 nuclei,    0 pairs)

Choice of magnetic origin               ... GIAO
Position of magnetic origin             ...     0.000000     0.000000     0.000000

Properties with geometric perturbations:
SCF Hessian                             ...  NO
IR spectrum                             ...  NO
VCD spectrum                            ...  NO
X-ray spectroscopy properties:
SCF XES/XAS/RIXS spectra                ...  NO

SCF SOC stabilization energy            ...  NO
Diagonal Born-Oppenheimer correction    ...  NO

-------------
DIPOLE MOMENT
-------------

Method             : SCF
Type of density    : Electron Density
Multiplicity       :   1
Irrep              :   0
Energy             :  -297.5967676989028519 Eh
Basis              : AO
                                X                 Y                 Z
Electronic contribution:      0.000505953      -0.002107389       0.001785664
Nuclear contribution   :     -0.000000000      -0.000000000       0.000000000
                        -----------------------------------------
Total Dipole Moment    :      0.000505953      -0.002107389       0.001785664
                        -----------------------------------------
Magnitude (a.u.)       :      0.002808144
Magnitude (Debye)      :      0.007137734



--------------------
Rotational spectrum 
--------------------
 
Rotational constants in cm-1:             0.074645             0.074288             0.070830 
Rotational constants in MHz :          2237.803175          2227.092592          2123.428241 

Dipole components along the rotational axes: 
x,y,z [a.u.] :    -0.002622     0.000963     0.000289 
x,y,z [Debye]:    -0.006664     0.002448     0.000736 

 

Dipole moment calculation done in   0.0 sec 

Maximum memory used throughout the entire PROP-calculation: 8.8 MB

--------------------------------
SUGGESTED CITATIONS FOR THIS RUN
--------------------------------

Below you find a list of papers that are relevant to this ORCA run
We neither can nor want to force you to cite these papers, but we appreciate if you do
You receive ORCA, which is the product of decades of hard work by many enthusiastic individuals, for free
The only thing we kindly ask in return is that you cite our papers,
We deeply appreciate it, if you show your appreciation for ORCA by not just citing the generic ORCA reference.

Please note that relegating all ORCA citations to the supporting information does *not* help us.
SI sections are not indexed - citations you put there will not count into any citation statistics
But we need these citations in order to attract the funding resources that allow us to do what we are doing

Therefore, if you are a happy ORCA user, please consider citing a few of the papers listed below in the main body of your paper

In addition to the list printed below, the program has created the file icosahedron_nn2.00_perturb0.bibtex that contains the list in bibtex format
You can import this file easily into all common literature databanks and citation aid programs

It goes without saying that in many instances, there are alternative algorithms to achieve similar
results as the ones you have gotten from ORCA. It is, of course, also the case that in some instances
ORCA just re-implements algorithms worked out by others. We are fully aware of that and we are also
fully appreciative of our colleagues work. Hence this citation list should not be read as indicating
that the listed papers, which are focused on our own work, are the only ones worth citing. It simply
meant to make it easier for users to cite ORCA specific papers. It is not a substitute for doing your
own literature research and citing the relevant literature in a scientifically appropriate manner.

List of essential papers. We consider these as the minimum necessary citations

  1. Neese, F.
     Software update: the ORCA program system, version 6.0
     WIRES Comput. Molec. Sci. 2025 15(1), e70019
     doi.org/10.1002/wcms.70019

List of papers to cite with high priority. The work reported in these papers was absolutely
necessary for this run to complete.
Our perspective: the developers of density functionals and basis sets usually get cited in chemistry papers
Good! But without the algorithms to do something with them, the functionals or basis sets would not do anything.
Hence, in our opinion, the algorithm design and method developments papers are equally worthy of getting cited

  1. Neese, F.
     An improvement of the resolution of the identity approximation for the formation of the Coulomb matrix
     J. Comp. Chem. 2003 24(14), 1740-1747
     doi.org/10.1002/jcc.10318
  2. Grimme, S.; Antony, J.; Ehrlich, S.; Krieg, H.
     A consistent and accurate ab initio parametrization of density functional dispersion correction (DFT-D) for the 94 elements H-Pu
     J. Chem. Phys. 2010 132 , 154104
     doi.org/10.1063/1.3382344
  3. Grimme, S.; Ehrlich, S.; Goerigk, L.
     Effect of the damping function in dispersion corrected density functional theory
     J. Comput. Chem. 2011 32(7), 1456-1465
     doi.org/10.1002/jcc.21759
  4. Neese, F.
     The SHARK Integral Generation and Digestion System
     J. Comp. Chem. 2022 44(3), 381
     doi.org/10.1002/jcc.26942

List of suggested additional citations. These are papers that are important in the 'surrounding' of 
of this run, or papers that preceded the highly important papers. If you like your results we are grateful for a citation.

  1. Neese, F.
     The ORCA program system
     WIRES Comput. Molec. Sci. 2012 2(1), 73-78
     doi.org/10.1002/wcms.81
  2. Neese, F.
     Software update: the ORCA program system, version 4.0
     WIRES Comput. Molec. Sci. 2018 8(1), 1-6
     doi.org/10.1002/wcms.1327
  3. Neese, F.; Wennmohs, F.; Becker, U.; Riplinger, C.
     The ORCA quantum chemistry program package
     J. Chem. Phys. 2020 152(22), 224108
     doi.org/10.1063/5.0004608
  4. Neese, F.
     Software update: The ORCA program system—Version 5.0
     WIRES Comput. Molec. Sci. 2022 12(1), e1606
     doi.org/10.1002/wcms.1606

List of optional additional citations

  1. Neese, F.
     Approximate second-order SCF convergence for spin unrestricted wavefunctions
     Chem. Phys. Lett. 2000 325(1-3), 93-98
     doi.org/10.1016/s0009-2614(00)00662-x

Timings for individual modules:

Sum of individual times          ...      322.311 sec (=   5.372 min)
Startup calculation              ...       38.371 sec (=   0.640 min)  11.9 %
SCF iterations                   ...      233.462 sec (=   3.891 min)  72.4 %
Property calculations            ...        0.894 sec (=   0.015 min)   0.3 %
SCF Gradient evaluation          ...       49.319 sec (=   0.822 min)  15.3 %
Geometry relaxation              ...        0.265 sec (=   0.004 min)   0.1 %
                             ****ORCA TERMINATED NORMALLY****
TOTAL RUN TIME: 0 days 0 hours 5 minutes 39 seconds 513 msec
