
                                 *****************
                                 * O   R   C   A *
                                 *****************

                                            #,                                       
                                            ###                                      
                                            ####                                     
                                            #####                                    
                                            ######                                   
                                           ########,                                 
                                     ,,################,,,,,                         
                               ,,#################################,,                 
                          ,,##########################################,,             
                       ,#########################################, ''#####,          
                    ,#############################################,,   '####,        
                  ,##################################################,,,,####,       
                ,###########''''           ''''###############################       
              ,#####''   ,,,,##########,,,,          '''####'''          '####       
            ,##' ,,,,###########################,,,                        '##       
           ' ,,###''''                  '''############,,,                           
         ,,##''                                '''############,,,,        ,,,,,,###''
      ,#''                                            '''#######################'''  
     '                                                          ''''####''''         
             ,#######,   #######,   ,#######,      ##                                
            ,#'     '#,  ##    ##  ,#'     '#,    #''#        ,####,    ,#,          
            ##       ##  ##   ,#'  ##            #'  '#       #'       ,# #          
            ##       ##  #######   ##           ,######,      #####,      #          
            '#,     ,#'  ##    ##  '#,     ,#' ,#      #,     #,   #      #          
             '#######'   ##     ##  '#######'  #'      '#     '####' #    #          



                #########################################################
                #                        -***-                          #
                #          Department of theory and spectroscopy        #
                #                                                       #
                #                      Frank Neese                      #
                #                                                       #
                #     Directorship, Architecture, Infrastructure        #
                #                    SHARK, DRIVERS                     #
                #        Core code/Algorithms in most modules           #
                #                                                       #
                #        Max Planck Institute fuer Kohlenforschung      #
                #                Kaiser Wilhelm Platz 1                 #
                #                 D-45470 Muelheim/Ruhr                 #
                #                      Germany                          #
                #                                                       #
                #                  All rights reserved                  #
                #                        -***-                          #
                #########################################################


                         Program Version 6.1.1  -  RELEASE   -
                                (GIT: $487d211c$)
                          ($2025-11-21 10:33:24 +0100$)
                                                                         
                                  - NO-DMRG VERSION -                    
                                                                         


 With contributions from (in alphabetic order):
[Max-Planck-Institut fuer Kohlenforschung]                               
  Daniel Aravena         : Magnetic Suceptibility                        
  Michael Atanasov       : Ab Initio Ligand Field Theory (pilot matlab implementation)
  Alexander A. Auer      : GIAO ZORA, VPT2 properties, NMR spectrum      
  Ute Becker             : All parallelization in ORCA, NUMFREQ, NUMCALC 
  Giovanni Bistoni       : ED, misc. LED, open-shell LED, HFLD           
  Dmytro Bykov           : pre 5.0 version of the SCF Hessian            
  Marcos Casanova-Páez   : Triplet and SCS-CIS(D). UHF-(DLPNO)-IP/EA/STEOM-CCSD. UHF-CVS-IP/STEOM-CCSD   
  Vijay G. Chilkuri      : MRCI spin determinant printing, contributions to CSF-ICE 
  Pauline Colinet        : FMM embedding                                 
  Dipayan Datta          : RHF DLPNO-CCSD density                        
  Achintya Kumar Dutta   : EOM-CC, STEOM-CC                              
  Nicolas Foglia         : Exact transition moments, OPA infrastructure, MCD improvements    
  Dmitry Ganyushin       : Spin-Orbit,Spin-Spin,Magnetic field MRCI      
  Miquel Garcia-Rates    : C-PCM and meta-GGA Hessian, CCSD/C-PCM, Gaussian charge scheme 
  Tiago L. C. Gouveia    : GS-ROHF, GS-ROCIS                             
  Yang Guo               : DLPNO-NEVPT2, F12-NEVPT2, CIM, IAO-localization        
  Andreas Hansen         : Spin unrestricted coupled pair/coupled cluster methods 
  Ingolf Harden          : AUTO-CI MPn and infrastructure                
  Benjamin Helmich-Paris : MC-RPA, TRAH-(SCF,CASSCF), AVAS, COSX integrals, SCF dyn. polar., MC-PDFT, srDFT 
  Lee Huntington         : MR-EOM, pCC                                   
  Robert Izsak           : Overlap fitted RIJCOSX, COSX-SCS-MP3, EOM     
  Riya Kayal             : Wick's Theorem for AUTO-CI, AUTO-CI UHF-CCSDT 
  Emily Kempfer          : AUTO-CI RHF CISDT and CCSDT, approximate NEVPT4
  Christian Kollmar      : KDIIS, OOCD, Brueckner-CCSD(T), CCSD density, CASPT2, CASPT2-K, improved NEVPT2 
  Axel Koslowski         : Symmetry handling                             
  Simone Kossmann        : meta-GGA functionals, TD-DFT gradient, OOMP2, (MP2 Hessian; deprecated post 5.0) 
  Lucas Lang             : DCDCAS, Hyperfine gauge corrections, ICE-SOC+SSC
  Marvin Lechner         : AUTO-CI (C++ implementation), FIC-MRCC        
  Spencer Leger          : CASSCF response                               
  Dagmar Lenk            : GEPOL surface, SMD, ORCA-2-JSON               
  Dimitrios Liakos       : Extrapolation schemes; Compound Job, Property file
  Dimitrios Manganas     : Further ROCIS development; embedding schemes. LFT, Crystal Embedding 
  Dimitrios Pantazis     : SARC Basis sets                               
  Anastasios Papadopoulos: AUTO-CI, single reference methods and gradients 
  Taras Petrenko         : pre 6.0 DFT Hessian and TD-DFT gradient,  ECA, NRVS 
  Petra Pikulova         : Analytic Raman intensities                    
  Peter Pinski           : DLPNO-MP2, DLPNO-MP2 Gradient                 
  Shashank Vittal Rao    : ES-AILFT, MagRelax                            
  Christoph Reimann      : Effective Core Potentials                     
  Marius Retegan         : Local ZFS, SOC                                
  Christoph Riplinger    : Optimizer, TS searches, QM/MM, DLPNO-CCSD(T), (RO)-DLPNO pert. Triples 
  Michael Roemelt        : Original ROCIS implementation, recursive CI coupling coefficients
  Masaaki Saitow         : Open-shell DLPNO-CCSD energy and density      
  Barbara Sandhoefer     : DKH picture change effects                    
  Yorick L. A. Schmerwitz: GMF and freeze-and-release deltaSCF, NEB S-IDPP initial path                    
  Kantharuban Sivalingam : CASSCF convergence/infrastructure, NEVPT2, NEVPT3, NEVPT4(SD), FIC-MRCI and CEPA variants
  Bernardo de Souza      : ESD, SOC TD-DFT                               
  Georgi L. Stoychev     : AutoAux, RI-MP2 NMR, DLPNO-MP2 response, X2C  
  Van Anh Tran           : RI-MP2 g-tensors                              
  Willem Van den Heuvel  : Paramagnetic NMR                              
  Zikuan Wang            : NOTCH, Electric field optimization            
  Frank Wennmohs         : Technical directorship and infrastructure     
  Hang Xu                : AUTO-CI-Response properties                   
                                                                         
[FACCTs GmbH]                                                            
  Markus Bursch, Nicolas Foglia, Miquel Garcia-Rates, Ingolf Harden, Hagen Neugebauer, Anastasios Papadopoulos, 
  Christoph Riplinger, Bernardo de Souza, Georgi L. Stoychev                                                    
                                                                 
  APM, various basis sets, CI-OPT, improved COSX, DLPNO-Multilevel,           
  DOCKER, DRACO, updates on ESD, Fragmentator, GOAT, IRC, LR-CPCM, L-BFGS, MBIS, meta-GGA TD-DFT gradient, ML-optimized integration grids, 
  MM, NACMEs, nearIR, NEB, NEB-TS, NL-DFT gradient (VV10), 2- and 3-layer-ONIOM, interface openCOSMO-RS, QMMM,   
  Crystal-QMMM, RESP, rigid body optimization, SF, symmetry and pop. for TD-DFT, various functionals, SOLVATOR                                   
                                                                         
[Other institutions]                                                     
  V. Asgeirsson          : NEB                                           
  Christoph Bannwarth    : sTDA-DFT, sTD-DFT, PBEh-3c, B97-3c, D3        
  Giovanni Bistoni       : ETS/NOCV, ADLD/ADEX, COVALED                  
  Martin Brehm           : Molecular dynamics                            
  Ronald Cardenas        : ETS/NOCV                                      
  Martina Colucci        : COVALED                                       
  Sebastian Ehlert       : rSCAN, r2SCAN, r2SCAN-3c, D4, dhf basis sets  
  Marvin Friede          : D4 for Fr, Ra, Ac-Lr                          
  Lars Goerigk           : TD-DFT with DH, B97 family of functionals     
  Stefan Grimme          : VdW corrections, initial TS optimization, DFT functionals, gCP, sTDA/sTD-DF 
  Waldemar Hujo          : DFT-NL                                        
  H. Jonsson             : NEB                                           
  Holger Kruse           : gCP                                           
  Marcel Mueller         : wB97X-3c, vDZP basis set                      
  Hagen Neugebauer       : wr2SCAN, Native XTB                           
  Gianluca Regni         : ADLD/ADEX                                     
  Tobias Risthaus        : pre 6.0 range-separated hybrid DFT and stability analysis
  Lukas Wittmann         : regularized MP2, r2SCAN double-hybrids, wr2SCAN        
                                                                         
We gratefully acknowledge several colleagues who have allowed us to      
interface, adapt or use parts of their codes:                            
  Ed Valeev, F. Pavosevic, A. Kumar             : LibInt (2-el integral package), F12 methods 
  Garnet Chan, S. Sharma, J. Yang, R. Olivares  : DMRG                   
  Ulf Ekstrom                                   : XCFun DFT Library      
  Mihaly Kallay                                 : mrcc  (arbitrary order and MRCC methods)
  Frank Weinhold                                : gennbo (NPA and NBO analysis)           
  Simon Mueller                                 : openCOSMO-RS                            
  Christopher J. Cramer and Donald G. Truhlar   : smd solvation model                     
  S Lehtola, MJT Oliveira, MAL Marques          : LibXC Library                           
  Liviu Ungur et al                             : ANISO software                          


 Your calculation uses the libint2 library for the computation of 2-el integrals
 For citations please refer to: http://libint.valeyev.net

 Your ORCA version has been built with support for libXC version: 7.0.0
 For citations please refer to: https://libxc.gitlab.io

 This ORCA versions uses:
   CBLAS   interface :  Fast vector & matrix operations
   LAPACKE interface :  Fast linear algebra routines
   SCALAPACK package :  Parallel linear algebra routines
   Shared memory     :  Shared parallel matrices
   BLAS/LAPACK       :  OpenBLAS 0.3.29  USE64BITINT DYNAMIC_ARCH NO_AFFINITY Zen SINGLE_THREADED
        Core in use  :  Zen
   Copyright (c) 2011-2014, The OpenBLAS Project


  ***********************************
  * Starting time: Fri Apr 24 09:24:21 2026
  * Host name:     vmi3233575
  * Process ID:    1808821
  * Working dir.:  /root/b12_scan/jobs_refined/rank02_quasi_planar_nn2.00_perturb0
  ***********************************

NOTE: MaxCore=2500 MB was set to SCF,MP2,MDCI,CIPSI,MRCI,RASCI and CIS
      => If you want to overwrite this, your respective input block should be placed after the MaxCore statement
Your calculation utilizes the atom-pairwise dispersion correction
with the Becke-Johnson damping scheme (D3BJ)


================================================================================

----- Orbital basis set information -----
Your calculation utilizes the basis: def2-TZVP
   F. Weigend and R. Ahlrichs, Phys. Chem. Chem. Phys. 7, 3297 (2005).

----- AuxJ basis set information -----
Your calculation utilizes the auxiliary basis: def2/J
   H-Rn: F. Weigend, Phys. Chem. Chem. Phys. 8, 1057 (2006).
   Fr-Lr: K. Eichkorn, F. Weigend, O. Treutler, R. Ahlrichs; Theor. Chem. Acc. 97, 119 (1997).

================================================================================
                                        WARNINGS
                       Please study these warnings very carefully!
================================================================================


WARNING: Geometry Optimization
  ===> : Switching off AutoStart
         For restart on a previous wavefunction, please use MOREAD

================================================================================
                                       INPUT FILE
================================================================================
NAME = rank02_quasi_planar_nn2.00_perturb0.inp
|  1> ! B3LYP def2-TZVP def2/J RIJCOSX Opt TightSCF D3BJ Freq
|  2> 
|  3> %pal nprocs 8 end
|  4> %maxcore 2500
|  5> 
|  6> %geom
|  7>   MaxIter 500
|  8> end
|  9> 
| 10> * xyz 0 1
| 11>   B           0.87409442496925      0.39781734063413      0.35905891519017
| 12>   B          -0.81727151949227      0.55582260959954      0.36655602551062
| 13>   B          -0.10777710596396     -0.98809157427142      0.36408546298034
| 14>   B           2.42994672674974      0.23994792964753     -0.19513655885505
| 15>   B           1.76828961685465      1.67909013053934     -0.19913603091827
| 16>   B           0.17032490984690      2.02300557135282     -0.06798343410287
| 17>   B          -1.46457302371767      1.97890197820587     -0.18896429451972
| 18>   B          -2.37959627571504      0.68636934708853     -0.18047325988930
| 19>   B          -1.87542001717839     -0.86732611928734     -0.04357987722969
| 20>   B          -1.02498204298049     -2.26279492356792     -0.17267902327211
| 21>   B           0.55236630779488     -2.40944981918065     -0.17977815376719
| 22>   B           1.65004454883240     -1.19648193076043     -0.06098733112693
| 23> *
| 24> 
| 25>                          ****END OF INPUT****
================================================================================

                       *****************************
                       * Geometry Optimization Run *
                       *****************************

Geometry optimization settings:
Update method            Update   .... BFGS
Choice of coordinates    CoordSys .... (2022) Redundant Internals
Initial Hessian          InHess   .... Almloef's Model
Max. no of cycles        MaxIter  .... 500

Convergence Tolerances:
Energy Change            TolE     ....  5.0000e-06 Eh
Max. Gradient            TolMAXG  ....  3.0000e-04 Eh/bohr
RMS Gradient             TolRMSG  ....  1.0000e-04 Eh/bohr
Max. Displacement        TolMAXD  ....  4.0000e-03 bohr
RMS Displacement         TolRMSD  ....  2.0000e-03 bohr
Strict Convergence                .... False

------------------------------------------------------------------------------
                        ORCA OPTIMIZATION COORDINATE SETUP
------------------------------------------------------------------------------

The optimization will be done in redundant internal coordinates (2022)
Making redundant internal coordinates   ...  (2022 redundants) done
Evaluating the initial hessian          ...  (Almloef) done
Evaluating the coordinates              ...  done
Calculating the B-matrix                .... done
Calculating the G-matrix                .... done
The number of degrees of freedom        ....  264

    -----------------------------------------------------------------
                    Redundant Internal Coordinates


    -----------------------------------------------------------------
         Definition                    Initial Value    Approx d2E/dq
    -----------------------------------------------------------------
      1. B(B   1,B   0)                  1.6987         0.269642   
      2. B(B   2,B   0)                  1.6985         0.269905   
      3. B(B   2,B   1)                  1.6991         0.269258   
      4. B(B   3,B   0)                  1.6591         0.311878   
      5. B(B   4,B   3)                  1.5840         0.411073   
      6. B(B   4,B   0)                  1.6592         0.311845   
      7. B(B   5,B   0)                  1.8218         0.171590   
      8. B(B   5,B   4)                  1.6398         0.334827   
      9. B(B   5,B   1)                  1.8212         0.171953   
     10. B(B   6,B   5)                  1.6400         0.334639   
     11. B(B   6,B   1)                  1.6591         0.311869   
     12. B(B   7,B   6)                  1.5837         0.411529   
     13. B(B   7,B   1)                  1.6605         0.310359   
     14. B(B   8,B   2)                  1.8181         0.173954   
     15. B(B   8,B   1)                  1.8202         0.172571   
     16. B(B   8,B   7)                  1.6392         0.335604   
     17. B(B   9,B   8)                  1.6393         0.335475   
     18. B(B   9,B   2)                  1.6596         0.311354   
     19. B(B  10,B   9)                  1.5842         0.410764   
     20. B(B  10,B   2)                  1.6589         0.312187   
     21. B(B  11,B  10)                  1.6402         0.334329   
     22. B(B  11,B   3)                  1.6400         0.334601   
     23. B(B  11,B   2)                  1.8205         0.172430   
     24. B(B  11,B   0)                  1.8222         0.171342   
     25. A(B   2,B   0,B   5)          120.3505         0.312026   
     26. A(B   3,B   0,B   5)          111.6444         0.319443   
     27. A(B   2,B   0,B   4)          160.5059         0.344316   
     28. A(B   1,B   0,B   5)           62.1881         0.311976   
     29. A(B   4,B   0,B  11)          111.6299         0.319362   
     30. A(B   3,B   0,B   4)           57.0238         0.352807   
     31. A(B   1,B   0,B   4)          117.7917         0.344259   
     32. A(B   1,B   0,B   3)          160.7343         0.344265   
     33. A(B   2,B   0,B  11)           62.1556         0.311953   
     34. A(B   2,B   0,B   3)          117.7393         0.344322   
     35. A(B   1,B   0,B   2)           60.0203         0.336050   
     36. A(B   3,B   0,B  11)           55.9733         0.319367   
     37. A(B   1,B   0,B  11)          120.4233         0.311904   
     38. A(B   5,B   0,B  11)          152.9983         0.290228   
     39. A(B   4,B   0,B   5)           55.9740         0.319437   
     40. A(B   2,B   1,B   7)          117.6353         0.343901   
     41. A(B   0,B   1,B   5)           62.2224         0.312083   
     42. A(B   0,B   1,B   2)           59.9821         0.335915   
     43. A(B   0,B   1,B   7)          160.5044         0.343984   
     44. A(B   5,B   1,B   6)           55.9918         0.319551   
     45. A(B   2,B   1,B   8)           62.0945         0.312192   
     46. A(B   0,B   1,B   6)          117.8234         0.344264   
     47. A(B   6,B   1,B   8)          111.6149         0.319739   
     48. A(B   7,B   1,B   8)           55.9630         0.319485   
     49. A(B   0,B   1,B   8)          120.3369         0.312264   
     50. A(B   2,B   1,B   5)          120.3469         0.312011   
     51. A(B   5,B   1,B   8)          153.0426         0.290650   
     52. A(B   6,B   1,B   7)           56.9874         0.352520   
     53. A(B   2,B   1,B   6)          160.3537         0.344182   
     54. A(B   5,B   1,B   7)          111.6097         0.319298   
     55. A(B   9,B   2,B  10)           57.0289         0.352772   
     56. A(B   8,B   2,B  10)          111.7350         0.320209   
     57. A(B   1,B   2,B  10)          160.9435         0.344240   
     58. A(B   0,B   2,B   1)           59.9976         0.335970   
     59. A(B   0,B   2,B  10)          117.9126         0.344379   
     60. A(B  10,B   2,B  11)           56.0207         0.319749   
     61. A(B   8,B   2,B   9)           56.0240         0.320070   
     62. A(B   1,B   2,B   9)          117.8794         0.344086   
     63. A(B   0,B   2,B   9)          160.9554         0.344225   
     64. A(B   9,B   2,B  11)          111.7286         0.319610   
     65. A(B   8,B   2,B  11)          153.3886         0.291141   
     66. A(B   1,B   2,B   8)           62.2241         0.312596   
     67. A(B   0,B   2,B   8)          120.4770         0.312717   
     68. A(B   1,B   2,B  11)          120.5008         0.312151   
     69. A(B   0,B   2,B  11)           62.2584         0.312272   
     70. A(B   4,B   3,B  11)          126.6806         0.374335   
     71. A(B   0,B   3,B   4)           61.4890         0.369829   
     72. A(B   0,B   3,B  11)           67.0498         0.357046   
     73. A(B   0,B   4,B   3)           61.4872         0.369822   
     74. A(B   3,B   4,B   5)          126.6850         0.374378   
     75. A(B   0,B   4,B   5)           67.0369         0.357080   
     76. A(B   4,B   5,B   6)          163.7262         0.361395   
     77. A(B   1,B   5,B   6)           56.9982         0.323258   
     78. A(B   0,B   5,B   6)          112.2357         0.323146   
     79. A(B   1,B   5,B   4)          112.2446         0.323288   
     80. A(B   0,B   5,B   4)           56.9891         0.323176   
     81. A(B   0,B   5,B   1)           55.5895         0.290390   
     82. A(B   1,B   6,B   5)           67.0100         0.357051   
     83. A(B   5,B   6,B   7)          126.6953         0.374414   
     84. A(B   1,B   6,B   7)           61.5483         0.369897   
     85. A(B   6,B   7,B   8)          126.6080         0.374600   
     86. A(B   1,B   7,B   8)           66.9563         0.356931   
     87. A(B   1,B   7,B   6)           61.4643         0.369589   
     88. A(B   7,B   8,B   9)          163.7124         0.361692   
     89. A(B   2,B   8,B   9)           57.0923         0.324005   
     90. A(B   1,B   8,B   9)          112.4406         0.323581   
     91. A(B   2,B   8,B   7)          112.3794         0.324025   
     92. A(B   1,B   8,B   7)           57.0808         0.323601   
     93. A(B   1,B   8,B   2)           55.6813         0.291179   
     94. A(B   8,B   9,B  10)          126.5635         0.374455   
     95. A(B   2,B   9,B  10)           61.4624         0.369674   
     96. A(B   2,B   9,B   8)           66.8838         0.357102   
     97. A(B   2,B  10,B   9)           61.5087         0.369844   
     98. A(B   9,B  10,B  11)          126.6955         0.374234   
     99. A(B   2,B  10,B  11)           66.9793         0.357057   
    100. A(B   3,B  11,B  10)          163.7512         0.361296   
    101. A(B   2,B  11,B  10)           57.0000         0.323356   
    102. A(B   0,B  11,B  10)          112.2562         0.323020   
    103. A(B   2,B  11,B   3)          112.2116         0.323399   
    104. A(B   0,B  11,B   3)           56.9769         0.323063   
    105. A(B   0,B  11,B   2)           55.5860         0.290450   
    106. D(B   5,B   1,B   0,B  11)   -149.1417         0.010000   
    107. D(B   2,B   1,B   0,B  11)     15.4013         0.010000   
    108. D(B   2,B   1,B   0,B   4)    157.8415         0.010000   
    109. D(B   2,B   1,B   0,B   3)     88.7447         0.010000   
    110. D(B   2,B   1,B   0,B   5)    164.5430         0.010000   
    111. D(B   5,B   1,B   0,B   4)     -6.7015         0.010000   
    112. D(B   5,B   1,B   0,B   2)   -164.5430         0.010000   
    113. D(B   5,B   1,B   0,B   3)    -75.7983         0.010000   
    114. D(B   6,B   1,B   0,B   2)   -157.6589         0.010000   
    115. D(B   6,B   1,B   0,B   3)    -68.9142         0.010000   
    116. D(B   8,B   2,B   0,B   1)     15.3783         0.010000   
    117. D(B   1,B   2,B   0,B  11)   -164.9894         0.010000   
    118. D(B   0,B   2,B   1,B   7)    157.8783         0.010000   
    119. D(B   9,B   2,B   1,B   5)   -142.4832         0.010000   
    120. D(B   1,B   2,B   0,B   4)    -89.0503         0.010000   
    121. D(B   1,B   2,B   0,B   5)    -15.8527         0.010000   
    122. D(B   8,B   2,B   0,B  11)   -149.6112         0.010000   
    123. D(B   8,B   2,B   1,B   6)    -75.8959         0.010000   
    124. D(B   1,B   2,B   0,B   3)   -158.1176         0.010000   
    125. D(B   9,B   2,B   1,B   0)   -158.3404         0.010000   
    126. D(B   0,B   2,B   1,B   5)     15.8573         0.010000   
    127. D(B   8,B   2,B   0,B   4)    -73.6721         0.010000   
    128. D(B   8,B   2,B   1,B   5)   -149.1727         0.010000   
    129. D(B   8,B   2,B   1,B   0)   -165.0300         0.010000   
    130. D(B   8,B   2,B   1,B   7)     -7.1517         0.010000   
    131. D(B   0,B   2,B   1,B   8)    165.0300         0.010000   
    132. D(B   8,B   2,B   0,B   5)     -0.4745         0.010000   
    133. D(B   0,B   2,B   1,B   6)     89.1341         0.010000   
    134. D(B   8,B   2,B   0,B   3)   -142.7393         0.010000   
    135. D(B   9,B   2,B   0,B   1)     88.9751         0.010000   
    136. D(B   4,B   3,B   0,B   1)     80.1079         0.010000   
    137. D(B  11,B   3,B   0,B   4)   -165.5233         0.010000   
    138. D(B  11,B   3,B   0,B   2)     -7.3340         0.010000   
    139. D(B   4,B   3,B   0,B  11)    165.5233         0.010000   
    140. D(B  11,B   3,B   0,B   1)    -85.4154         0.010000   
    141. D(B   4,B   3,B   0,B   5)     12.8140         0.010000   
    142. D(B   4,B   3,B   0,B   2)    158.1893         0.010000   
    143. D(B   5,B   4,B   3,B   0)    -16.5943         0.010000   
    144. D(B   5,B   4,B   0,B   3)    165.5972         0.010000   
    145. D(B   5,B   4,B   0,B   2)     85.3953         0.010000   
    146. D(B   5,B   4,B   0,B   1)      7.1542         0.010000   
    147. D(B   0,B   4,B   3,B  11)     16.6807         0.010000   
    148. D(B   3,B   4,B   0,B  11)    -12.8781         0.010000   
    149. D(B   3,B   4,B   0,B   5)   -165.5972         0.010000   
    150. D(B   3,B   4,B   0,B   2)    -80.2019         0.010000   
    151. D(B   5,B   4,B   3,B  11)      0.0864         0.010000   
    152. D(B   3,B   4,B   0,B   1)   -158.4430         0.010000   
    153. D(B   4,B   5,B   1,B   6)   -166.1732         0.010000   
    154. D(B   4,B   5,B   1,B   0)      6.4799         0.010000   
    155. D(B   4,B   5,B   1,B   2)     -9.0302         0.010000   
    156. D(B   0,B   5,B   1,B   6)   -172.6531         0.010000   
    157. D(B   0,B   5,B   1,B   2)    -15.5100         0.010000   
    158. D(B   4,B   5,B   0,B   1)   -172.8444         0.010000   
    159. D(B   1,B   5,B   0,B  11)    103.0498         0.010000   
    160. D(B   1,B   5,B   0,B   4)    172.8444         0.010000   
    161. D(B   1,B   5,B   0,B   3)    159.8713         0.010000   
    162. D(B   0,B   5,B   1,B   7)   -159.6092         0.010000   
    163. D(B   0,B   5,B   1,B   8)   -102.9203         0.010000   
    164. D(B   1,B   5,B   0,B   2)     15.5167         0.010000   
    165. D(B   4,B   5,B   0,B  11)    -69.7946         0.010000   
    166. D(B   4,B   5,B   0,B   3)    -12.9731         0.010000   
    167. D(B   4,B   5,B   1,B   7)   -153.1293         0.010000   
    168. D(B   4,B   5,B   0,B   2)   -157.3277         0.010000   
    169. D(B   6,B   5,B   4,B   3)    -36.2209         0.010000   
    170. D(B   6,B   5,B   4,B   0)    -52.0370         0.010000   
    171. D(B   1,B   5,B   4,B   3)      9.4415         0.010000   
    172. D(B   1,B   5,B   4,B   0)     -6.3747         0.010000   
    173. D(B   0,B   5,B   4,B   3)     15.8162         0.010000   
    174. D(B   7,B   6,B   5,B   4)     36.2007         0.010000   
    175. D(B   1,B   6,B   5,B   0)      6.5445         0.010000   
    176. D(B   5,B   6,B   1,B   7)   -165.5087         0.010000   
    177. D(B   7,B   6,B   1,B   0)    158.1586         0.010000   
    178. D(B   5,B   6,B   1,B   8)   -152.7789         0.010000   
    179. D(B   7,B   6,B   1,B   2)     79.9365         0.010000   
    180. D(B   1,B   6,B   5,B   4)     52.1262         0.010000   
    181. D(B   7,B   6,B   5,B   0)     -9.3809         0.010000   
    182. D(B   5,B   6,B   1,B   2)    -85.5721         0.010000   
    183. D(B   5,B   6,B   1,B   0)     -7.3501         0.010000   
    184. D(B   7,B   6,B   5,B   1)    -15.9255         0.010000   
    185. D(B   7,B   6,B   1,B   5)    165.5087         0.010000   
    186. D(B   8,B   7,B   6,B   5)      0.2334         0.010000   
    187. D(B   8,B   7,B   6,B   1)    -16.4626         0.010000   
    188. D(B   1,B   7,B   6,B   5)     16.6960         0.010000   
    189. D(B   8,B   7,B   1,B   5)    152.7954         0.010000   
    190. D(B   8,B   7,B   1,B   2)      7.6295         0.010000   
    191. D(B   8,B   7,B   1,B   0)     85.3222         0.010000   
    192. D(B   6,B   7,B   1,B   8)   -165.6874         0.010000   
    193. D(B   6,B   7,B   1,B   5)    -12.8921         0.010000   
    194. D(B   6,B   7,B   1,B   2)   -158.0579         0.010000   
    195. D(B   6,B   7,B   1,B   0)    -80.3652         0.010000   
    196. D(B   9,B   8,B   7,B   1)    -53.5354         0.010000   
    197. D(B   2,B   8,B   7,B   6)      8.8695         0.010000   
    198. D(B   2,B   8,B   7,B   1)     -6.8275         0.010000   
    199. D(B   7,B   8,B   2,B  10)   -153.1245         0.010000   
    200. D(B   7,B   8,B   2,B   9)   -165.9274         0.010000   
    201. D(B   7,B   8,B   2,B   1)      6.9398         0.010000   
    202. D(B   1,B   8,B   2,B  11)   -103.2597         0.010000   
    203. D(B   1,B   8,B   2,B  10)   -160.0643         0.010000   
    204. D(B   1,B   8,B   2,B   9)   -172.8673         0.010000   
    205. D(B   1,B   8,B   2,B   0)    -15.0442         0.010000   
    206. D(B   7,B   8,B   1,B   6)    -12.8841         0.010000   
    207. D(B   7,B   8,B   2,B   0)     -8.1043         0.010000   
    208. D(B   7,B   8,B   1,B   5)    -69.6515         0.010000   
    209. D(B   7,B   8,B   1,B   2)   -172.3514         0.010000   
    210. D(B   7,B   8,B   1,B   0)   -157.3317         0.010000   
    211. D(B   1,B   8,B   7,B   6)     15.6970         0.010000   
    212. D(B   2,B   8,B   1,B   7)    172.3514         0.010000   
    213. D(B   2,B   8,B   1,B   6)    159.4673         0.010000   
    214. D(B   2,B   8,B   1,B   5)    102.6999         0.010000   
    215. D(B   9,B   8,B   7,B   6)    -37.8383         0.010000   
    216. D(B   2,B   8,B   1,B   0)     15.0197         0.010000   
    217. D(B  10,B   9,B   8,B   2)    -15.5671         0.010000   
    218. D(B  10,B   9,B   8,B   1)     -9.1967         0.010000   
    219. D(B   2,B   9,B   8,B   7)     53.2907         0.010000   
    220. D(B   2,B   9,B   8,B   1)      6.3703         0.010000   
    221. D(B  10,B   9,B   2,B   8)    165.7968         0.010000   
    222. D(B  10,B   9,B   2,B   1)    158.6572         0.010000   
    223. D(B  10,B   9,B   2,B   0)     80.2617         0.010000   
    224. D(B   8,B   9,B   2,B  11)   -153.1294         0.010000   
    225. D(B   8,B   9,B   2,B  10)   -165.7968         0.010000   
    226. D(B   8,B   9,B   2,B   1)     -7.1396         0.010000   
    227. D(B  10,B   9,B   8,B   7)     37.7236         0.010000   
    228. D(B   8,B   9,B   2,B   0)    -85.5352         0.010000   
    229. D(B   9,B  10,B   2,B  11)   -165.7792         0.010000   
    230. D(B   9,B  10,B   2,B   8)    -12.6529         0.010000   
    231. D(B   9,B  10,B   2,B   1)    -80.1669         0.010000   
    232. D(B   9,B  10,B   2,B   0)   -158.6575         0.010000   
    233. D(B  11,B  10,B   9,B   8)     -0.0611         0.010000   
    234. D(B  11,B  10,B   9,B   2)    -16.3783         0.010000   
    235. D(B   2,B  10,B   9,B   8)     16.3171         0.010000   
    236. D(B  11,B  10,B   2,B   8)    153.1263         0.010000   
    237. D(B  11,B  10,B   2,B   1)     85.6123         0.010000   
    238. D(B  11,B  10,B   2,B   0)      7.1217         0.010000   
    239. D(B   3,B  11,B  10,B   2)    -51.8820         0.010000   
    240. D(B   2,B  11,B  10,B   9)     15.6209         0.010000   
    241. D(B   0,B  11,B  10,B   9)      9.2861         0.010000   
    242. D(B  10,B  11,B   3,B   4)     36.0962         0.010000   
    243. D(B  10,B  11,B   3,B   0)     51.9933         0.010000   
    244. D(B   2,B  11,B   3,B   4)     -9.3590         0.010000   
    245. D(B   0,B  11,B   3,B   4)    -15.8970         0.010000   
    246. D(B   3,B  11,B   2,B   9)    153.4261         0.010000   
    247. D(B   3,B  11,B   2,B   8)     96.6274         0.010000   
    248. D(B   3,B  11,B   2,B   1)      8.4435         0.010000   
    249. D(B   3,B  11,B   2,B   0)     -6.6453         0.010000   
    250. D(B   0,B  11,B   2,B  10)    172.8896         0.010000   
    251. D(B   0,B  11,B   2,B   9)    160.0714         0.010000   
    252. D(B   0,B  11,B   2,B   8)    103.2726         0.010000   
    253. D(B   0,B  11,B   2,B   1)     15.0887         0.010000   
    254. D(B   3,B  11,B   0,B   5)     69.8311         0.010000   
    255. D(B   2,B  11,B   3,B   0)      6.5380         0.010000   
    256. D(B   3,B  11,B   0,B   4)     13.0381         0.010000   
    257. D(B   3,B  11,B   0,B   2)    172.6589         0.010000   
    258. D(B   3,B  11,B   0,B   1)    157.5789         0.010000   
    259. D(B   0,B  11,B  10,B   2)     -6.3348         0.010000   
    260. D(B   2,B  11,B   0,B   5)   -102.8278         0.010000   
    261. D(B   2,B  11,B   0,B   4)   -159.6208         0.010000   
    262. D(B   2,B  11,B   0,B   3)   -172.6589         0.010000   
    263. D(B   3,B  11,B  10,B   9)    -36.2611         0.010000   
    264. D(B   2,B  11,B   0,B   1)    -15.0800         0.010000   
    -----------------------------------------------------------------

Number of atoms                         .... 12
Number of degrees of freedom            .... 264


         *************************************************************
         *                GEOMETRY OPTIMIZATION CYCLE   1            *
         *************************************************************
---------------------------------
CARTESIAN COORDINATES (ANGSTROEM)
---------------------------------
  B      0.874094    0.397817    0.359059
  B     -0.817272    0.555823    0.366556
  B     -0.107777   -0.988092    0.364085
  B      2.429947    0.239948   -0.195137
  B      1.768290    1.679090   -0.199136
  B      0.170325    2.023006   -0.067983
  B     -1.464573    1.978902   -0.188964
  B     -2.379596    0.686369   -0.180473
  B     -1.875420   -0.867326   -0.043580
  B     -1.024982   -2.262795   -0.172679
  B      0.552366   -2.409450   -0.179778
  B      1.650045   -1.196482   -0.060987

----------------------------
CARTESIAN COORDINATES (A.U.)
----------------------------
  NO LB      ZA    FRAG     MASS         X           Y           Z
   0 B     5.0000    0    10.810    1.651799    0.751766    0.678523
   1 B     5.0000    0    10.810   -1.544419    1.050353    0.692691
   2 B     5.0000    0    10.810   -0.203669   -1.867222    0.688022
   3 B     5.0000    0    10.810    4.591934    0.453436   -0.368755
   4 B     5.0000    0    10.810    3.341583    3.173021   -0.376313
   5 B     5.0000    0    10.810    0.321867    3.822926   -0.128470
   6 B     5.0000    0    10.810   -2.767642    3.739583   -0.357091
   7 B     5.0000    0    10.810   -4.496785    1.297050   -0.341045
   8 B     5.0000    0    10.810   -3.544030   -1.639009   -0.082354
   9 B     5.0000    0    10.810   -1.936935   -4.276063   -0.326316
  10 B     5.0000    0    10.810    1.043821   -4.553200   -0.339731
  11 B     5.0000    0    10.810    3.118132   -2.261023   -0.115249

--------------------------------
INTERNAL COORDINATES (ANGSTROEM)
--------------------------------
 B      0   0   0     0.000000000000     0.00000000     0.00000000
 B      1   0   0     1.698746782122     0.00000000     0.00000000
 B      1   2   0     1.698481819112    60.02027759     0.00000000
 B      1   2   3     1.659135847161   160.73430586    88.74468812
 B      4   1   2     1.583962247416    61.48899743    80.10788589
 B      5   4   1     1.639807927449   126.68502116   343.40567464
 B      6   5   4     1.639961203410   163.72624198   323.77913767
 B      7   6   5     1.583660396634   126.69533817    36.20065496
 B      8   7   6     1.639177568211   126.60799933     0.23340435
 B      9   8   7     1.639281708916   163.71244223   322.16167708
 B     10   9   8     1.584167249931   126.56349938    37.72360248
 B      4   1   2     1.639992123851    67.04982334   274.58459411

---------------------------
INTERNAL COORDINATES (A.U.)
---------------------------
 B      0   0   0     0.000000000000     0.00000000     0.00000000
 B      1   0   0     3.210166189090     0.00000000     0.00000000
 B      1   2   0     3.209665481566    60.02027759     0.00000000
 B      1   2   3     3.135312370105   160.73430586    88.74468812
 B      4   1   2     2.993254854087    61.48899743    80.10788589
 B      5   4   1     3.098787895111   126.68502116   343.40567464
 B      6   5   4     3.099077544700   163.72624198   323.77913767
 B      7   6   5     2.992684438776   126.69533817    36.20065496
 B      8   7   6     3.097596688785   126.60799933     0.23340435
 B      9   8   7     3.097793486198   163.71244223   322.16167708
 B     10   9   8     2.993642252697   126.56349938    37.72360248
 B      4   1   2     3.099135975865    67.04982334   274.58459411

---------------------
BASIS SET INFORMATION
---------------------
There are 1 groups of distinct atoms

 Group   1 Type B   : 11s6p2d1f contracted to 5s3p2d1f pattern {62111/411/11/1}

Atom   0B    basis set group =>   1
Atom   1B    basis set group =>   1
Atom   2B    basis set group =>   1
Atom   3B    basis set group =>   1
Atom   4B    basis set group =>   1
Atom   5B    basis set group =>   1
Atom   6B    basis set group =>   1
Atom   7B    basis set group =>   1
Atom   8B    basis set group =>   1
Atom   9B    basis set group =>   1
Atom  10B    basis set group =>   1
Atom  11B    basis set group =>   1
---------------------------------
AUXILIARY/J BASIS SET INFORMATION
---------------------------------
There are 1 groups of distinct atoms

 Group   1 Type B   : 12s5p4d2f1g contracted to 6s4p3d1f1g pattern {711111/2111/211/2/1}

Atom   0B    basis set group =>   1
Atom   1B    basis set group =>   1
Atom   2B    basis set group =>   1
Atom   3B    basis set group =>   1
Atom   4B    basis set group =>   1
Atom   5B    basis set group =>   1
Atom   6B    basis set group =>   1
Atom   7B    basis set group =>   1
Atom   8B    basis set group =>   1
Atom   9B    basis set group =>   1
Atom  10B    basis set group =>   1
Atom  11B    basis set group =>   1


           ************************************************************
           *        Program running with 8 parallel MPI-processes     *
           *              working on a common directory               *
           ************************************************************
------------------------------------------------------------------------------
                             ORCA STARTUP CALCULATIONS
                           -- RI-GTO INTEGRALS CHOSEN --
------------------------------------------------------------------------------
------------------------------------------------------------------------------
                   ___                                                        
                  /   \      - P O W E R E D   B Y -                         
                 /     \                                                     
                 |  |  |   _    _      __       _____    __    __             
                 |  |  |  | |  | |    /  \     |  _  \  |  |  /  |          
                  \  \/   | |  | |   /    \    | | | |  |  | /  /          
                 / \  \   | |__| |  /  /\  \   | |_| |  |  |/  /          
                |  |  |   |  __  | /  /__\  \  |    /   |      \           
                |  |  |   | |  | | |   __   |  |    \   |  |\   \          
                \     /   | |  | | |  |  |  |  | |\  \  |  | \   \       
                 \___/    |_|  |_| |__|  |__|  |_| \__\ |__|  \__/        
                                                                              
                      - O R C A' S   B I G   F R I E N D -                    
                                      &                                       
                       - I N T E G R A L  F E E D E R -                       
                                                                              
 v1 FN, 2020, v2 2021, v3 2022-2024                                           
------------------------------------------------------------------------------


----------------------
SHARK INTEGRAL PACKAGE
----------------------

Number of atoms                             ...     12
Number of basis functions                   ...    372
Number of shells                            ...    132
Maximum angular momentum                    ...      3
Integral batch strategy                     ... SHARK/LIBINT Hybrid
RI-J (if used) integral strategy            ... SPLIT-RIJ (Revised 2003 algorithm where possible)
Printlevel                                  ...      1
Contraction scheme used                     ... SEGMENTED contraction
Prescreening option                         ... SCHWARTZ
   Thresh                                   ... 2.500e-11
   Tcut                                     ... 2.500e-12
   Tpresel                                  ... 2.500e-12 
Coulomb Range Separation                    ... NOT USED
Exchange Range Separation                   ... NOT USED
Multipole approximations                    ... NOT USED
Finite Nucleus Model                        ... NOT USED
CABS basis                                  ... NOT available
Auxiliary Coulomb fitting basis             ... AVAILABLE
   # of basis functions in Aux-J            ...    588
   # of shells in Aux-J                     ...    180
   Maximum angular momentum in Aux-J        ...      4
Auxiliary J/K fitting basis                 ... NOT available
Auxiliary Correlation fitting basis         ... NOT available
Auxiliary 'external' fitting basis          ... NOT available

Checking pre-screening integrals            ... done (  0.0 sec) Dimension = 132
   => SHARK Basis and OBASIS are compatible. Storing Pre-screening
Shell pair information
Shell pair cut-off parameter TPreSel        ...   2.5e-12
Total number of shell pairs                 ...      8778
Shell pairs after pre-screening             ...      8460
Total number of primitive shell pairs       ...     29184
Primitive shell pairs kept                  ...     21406
          la=0 lb=0:   1644 shell pairs
          la=1 lb=0:   2112 shell pairs
          la=1 lb=1:    666 shell pairs
          la=2 lb=0:   1380 shell pairs
          la=2 lb=1:    864 shell pairs
          la=2 lb=2:    300 shell pairs
          la=3 lb=0:    696 shell pairs
          la=3 lb=1:    432 shell pairs
          la=3 lb=2:    288 shell pairs
          la=3 lb=3:     78 shell pairs

Checking whether 4 symmetric matrices of dimension 372 fit in memory
:Max Core in MB      =   2500.00
 MB in use           =     14.68
 MB left             =   2485.32
 MB needed           =      2.12
 Data fit in memory  = YES
Calculating RI/J V-Matrix + Cholesky decomp.... done (  0.1 sec)
Calculating Nuclear repulsion               ... done (  0.0 sec) ENN=    348.486488778019 Eh

Diagonalization of the overlap matrix:
Smallest eigenvalue                        ... 1.039e-05
Time for diagonalization                   ...    0.029 sec
Threshold for overlap eigenvalues          ... 1.000e-07
Number of eigenvalues below threshold      ... 0
Time for construction of square roots      ...    0.013 sec
Total time needed                          ...    0.046 sec

-------------------
DFT GRID GENERATION
-------------------

General Integration Accuracy     IntAcc      ... 4.388
Radial Grid Type                 RadialGrid  ... OptM3 with GC (2021)
Angular Grid (max. ang.)         AngularGrid ... 4 (Lebedev-302)
Angular grid pruning method      GridPruning ... 4 (adaptive)
Weight generation scheme         WeightScheme... mBecke (2022)
Basis function cutoff            BFCut       ... 1.0000e-11
Integration weight cutoff        WCut        ... 1.0000e-14
Partially contracted basis set               ... off
Rotationally invariant grid construction     ... off
Angular grids for H and He will be reduced by one unit

Total number of grid points                  ...    70910
Total number of batches                      ...     1115
Average number of points per batch           ...       63
Average number of grid points per atom       ...     5909

--------------------
COSX GRID GENERATION
--------------------

GRIDX 1
-------
General Integration Accuracy     IntAcc      ... 3.816
Radial Grid Type                 RadialGrid  ... OptM3 with GC (2021)
Angular Grid (max. ang.)         AngularGrid ... 1 (Lebedev-50)
Angular grid pruning method      GridPruning ... 4 (adaptive)
Weight generation scheme         WeightScheme... mBecke (2022)
Basis function cutoff            BFCut       ... 1.0000e-11
Integration weight cutoff        WCut        ... 1.0000e-14
Partially contracted basis set               ... on
Rotationally invariant grid construction     ... off
Angular grids for H and He will be reduced by one unit

Total number of grid points                  ...     8930
Total number of batches                      ...       76
Average number of points per batch           ...      117
Average number of grid points per atom       ...      744
UseSFitting                                  ... on

GRIDX 2
-------
General Integration Accuracy     IntAcc      ... 4.020
Radial Grid Type                 RadialGrid  ... OptM3 with GC (2021)
Angular Grid (max. ang.)         AngularGrid ... 2 (Lebedev-110)
Angular grid pruning method      GridPruning ... 4 (adaptive)
Weight generation scheme         WeightScheme... mBecke (2022)
Basis function cutoff            BFCut       ... 1.0000e-11
Integration weight cutoff        WCut        ... 1.0000e-14
Partially contracted basis set               ... on
Rotationally invariant grid construction     ... off
Angular grids for H and He will be reduced by one unit

Total number of grid points                  ...    21100
Total number of batches                      ...      169
Average number of points per batch           ...      124
Average number of grid points per atom       ...     1758
UseSFitting                                  ... on

GRIDX 3
-------
General Integration Accuracy     IntAcc      ... 4.338
Radial Grid Type                 RadialGrid  ... OptM3 with GC (2021)
Angular Grid (max. ang.)         AngularGrid ... 3 (Lebedev-194)
Angular grid pruning method      GridPruning ... 4 (adaptive)
Weight generation scheme         WeightScheme... mBecke (2022)
Basis function cutoff            BFCut       ... 1.0000e-11
Integration weight cutoff        WCut        ... 1.0000e-14
Partially contracted basis set               ... on
Rotationally invariant grid construction     ... off
Angular grids for H and He will be reduced by one unit

Total number of grid points                  ...    46840
Total number of batches                      ...      372
Average number of points per batch           ...      125
Average number of grid points per atom       ...     3903
UseSFitting                                  ... on
Grids setup in   1.6 sec
Initializing property integral containers    ... done (  0.0 sec)

SHARK setup successfully completed in   2.3 seconds

Maximum memory used throughout the entire STARTUP-calculation: 30.0 MB


           ************************************************************
           *        Program running with 8 parallel MPI-processes     *
           *              working on a common directory               *
           ************************************************************
-------------------------------------------------------------------------------
                                 ORCA GUESS
                   Start orbitals & Density for SCF / CASSCF
-------------------------------------------------------------------------------

------------
SCF SETTINGS
------------
Hamiltonian:
 Density Functional     Method          .... DFT(GTOs)
 Exchange Functional    Exchange        .... B88
   X-Alpha parameter    XAlpha          ....  0.666667
   Becke's b parameter  XBeta           ....  0.004200
 Correlation Functional Correlation     .... LYP
 LDA part of GGA corr.  LDAOpt          .... VWN-5
 Gradients option       PostSCFGGA      .... off
 Hybrid DFT is turned on
   Fraction HF Exchange ScalHFX         ....  0.200000
   Scaling of DF-GGA-X  ScalDFX         ....  0.720000
   Scaling of DF-GGA-C  ScalDFC         ....  0.810000
   Scaling of DF-LDA-C  ScalLDAC        ....  1.000000
   Perturbative correction              ....  0.000000
   NL short-range parameter             ....  4.800000
 RI-approximation to the Coulomb term is turned on
   Number of AuxJ basis functions       .... 588
   RIJ-COSX (HFX calculated with COS-X)).... on


General Settings:
 Integral files         IntName         .... rank02_quasi_planar_nn2.00_perturb0
 Hartree-Fock type      HFTyp           .... RHF
 Total Charge           Charge          ....    0
 Multiplicity           Mult            ....    1
 Number of Electrons    NEL             ....   60
 Basis Dimension        Dim             ....  372
 Nuclear Repulsion      ENuc            ....    348.4864887780 Eh

Convergence Acceleration:
 AO-DIIS                CNVDIIS         .... on
   Start iteration      DIISMaxIt       ....    12
   Startup error        DIISStart       ....  0.200000
   # of expansion vecs  DIISMaxEq       ....     5
   Bias factor          DIISBfac        ....   1.050
   Max. coefficient     DIISMaxC        ....  10.000
 MO-DIIS                CNVKDIIS        .... off
 Trust-Rad. Augm. Hess. CNVTRAH         .... auto
   Auto Start mean grad. ratio tolernc. ....  1.125000
   Auto Start start iteration           ....    50
   Auto Start num. interpolation iter.  ....    10
   Max. Number of Micro iterations      ....    24
   Max. Number of Macro iterations      .... Maxiter - #DIIS iter
   Number of Davidson start vectors     ....     2
   Converg. threshold    (grad. norm)   ....   1.000e-05
   Grad. Scal. Fac. for Micro threshold ....   0.100
   Minimum threshold for Micro iter.    ....   1.000e-02
   NR start threshold (gradient norm)   ....   1.000e-04
   Initial trust radius                 ....   0.400
   Minimum AH scaling param. (alpha)    ....   1.000
   Maximum AH scaling param. (alpha)    .... 1000.000
   Quad. conv. algorithm                .... NR
   White noise on init. David. guess    .... on
   Maximum white noise                  ....   0.010
   Pseudo random numbers                .... off
   Inactive MOs                         .... canonical
   Orbital update algorithm             .... Taylor
   Preconditioner                       .... Diag
   Full preconditioner red. dimension   ....   250
 SOSCF                 CNVSOSCF           .... on
   Start iteration     SOSCFMaxIt         ....   150
   Startup grad/error  SOSCFStart         ....  0.003300
   Hessian update      SOSCFHessUp        .... L-BFGS
   Autom. constraints  SOSCFAutoConstrain .... off
 Level Shifting         CNVShift        .... on
   Level shift para.    LevelShift      ....    0.2500
   Turn off err/grad.   ShiftErr        ....    0.0010
 Zerner damping         CNVZerner       .... off
 Static damping         CNVDamp         .... on
   Fraction old density DampFac         ....    0.7000
   Max. Damping (<1)    DampMax         ....    0.9800
   Min. Damping (>=0)   DampMin         ....    0.0000
   Turn off err/grad.   DampErr         ....    0.1000

SCF Procedure:
 Maximum # iterations   MaxIter         ....   125
 SCF integral mode      SCFMode         .... Direct
   Integral package                     .... SHARK and LIBINT hybrid scheme
 Reset frequency        DirectResetFreq ....    20
 Integral Threshold     Thresh          ....  2.500e-11 Eh
 Primitive CutOff       TCut            ....  2.500e-12 Eh

Convergence Tolerance:
 Convergence Check Mode ConvCheckMode   .... Total+1el-Energy
 Convergence forced     ConvForced      .... 0
 Energy Change          TolE            ....  1.000e-08 Eh
 1-El. energy change                    ....  1.000e-05 Eh
 Orbital Gradient       TolG            ....  1.000e-05
 Orbital Rotation angle TolX            ....  1.000e-05
 DIIS Error             TolErr          ....  5.000e-07

------------------------------
INITIAL GUESS: MODEL POTENTIAL
------------------------------
Loading Hartree-Fock densities                     ... done
Calculating cut-offs                               ... done
Initializing the effective Hamiltonian             ... done
Setting up the integral package (SHARK)            ... done
Starting the Coulomb interaction                   ... done (   0.2 sec)
Making the grid                                    ... done (   0.2 sec)
Mapping shells                                     ... done
Starting the XC term evaluation                    ... done (   0.2 sec)
  promolecular density results
     # of electrons  =     59.999793645
     EX              =    -45.922016893
     EC              =     -1.894313470
     EX+EC           =    -47.816330362
Transforming the Hamiltonian                       ... done (   0.0 sec)
Diagonalizing the Hamiltonian                      ... done (   0.0 sec)
Back transforming the eigenvectors                 ... done (   0.0 sec)
Now organizing SCF variables                       ... done
                      ------------------
                      INITIAL GUESS DONE (   0.6 sec)
                      ------------------
             **** ENERGY FILE WAS UPDATED (rank02_quasi_planar_nn2.00_perturb0.en.tmp) ****
Finished Guess after   1.1 sec
Maximum memory used throughout the entire GUESS-calculation: 22.5 MB


           ************************************************************
           *        Program running with 8 parallel MPI-processes     *
           *              working on a common directory               *
           ************************************************************

-------------------------------------------------------------------------------------------
                                      ORCA LEAN-SCF
                              memory conserving SCF solver
-------------------------------------------------------------------------------------------

----------------------------------------D-I-I-S--------------------------------------------
Iteration    Energy (Eh)           Delta-E    RMSDP     MaxDP     DIISErr   Damp  Time(sec)
-------------------------------------------------------------------------------------------
               ***  Starting incremental Fock matrix formation  ***
    1    -297.4711877324716056     0.00e+00  6.52e-03  8.33e-02  1.38e-01  0.700   4.8
    2    -297.6386200649398575    -1.67e-01  4.48e-03  4.07e-02  7.20e-02  0.700   2.9
                               ***Turning on AO-DIIS***
    3    -297.7077857820447093    -6.92e-02  2.39e-03  2.18e-02  2.87e-02  0.700   2.5
    4    -297.7481758997288921    -4.04e-02  5.29e-03  5.21e-02  1.66e-02  0.000   2.5
    5    -297.8346139503317431    -8.64e-02  7.92e-04  1.06e-02  6.70e-03  0.000   2.5
                              *** Initializing SOSCF ***
---------------------------------------S-O-S-C-F--------------------------------------
Iteration    Energy (Eh)           Delta-E    RMSDP     MaxDP     MaxGrad    Time(sec)
--------------------------------------------------------------------------------------
    6    -297.8357192253067183    -1.11e-03  5.89e-04  1.36e-02  1.64e-03     2.9
               *** Restarting incremental Fock matrix formation ***
    7    -297.8358123151536461    -9.31e-05  7.88e-04  2.05e-02  3.98e-04     4.5
    8    -297.8358267923468361    -1.45e-05  2.25e-04  5.70e-03  2.34e-04     3.8
    9    -297.8358302440533976    -3.45e-06  1.39e-04  3.50e-03  1.56e-04     3.7
   10    -297.8358309206974468    -6.77e-07  6.83e-05  1.79e-03  1.45e-04     3.5
   11    -297.8358313598069458    -4.39e-07  4.68e-05  1.11e-03  6.16e-05     5.6
   12    -297.8358315717383107    -2.12e-07  1.33e-05  3.54e-04  3.37e-05     3.7
   13    -297.8358315522515909     1.95e-08  1.26e-05  2.72e-04  5.45e-05     4.0
   14    -297.8358316154742056    -6.32e-08  6.66e-06  1.75e-04  1.22e-05     3.4
   15    -297.8358316271017543    -1.16e-08  4.27e-06  1.01e-04  7.63e-06     3.4
   16    -297.8358316354940030    -8.39e-09  3.86e-06  4.89e-05  1.30e-06     3.1
                 **** Energy Check signals convergence ****

               *****************************************************
               *                     SUCCESS                       *
               *           SCF CONVERGED AFTER  16 CYCLES          *
               *****************************************************

Recomputing exchange energy using gridx3       ... done (    7.062 sec)
Old exchange energy                            :     -9.312443054 Eh
New exchange energy                            :     -9.312442740 Eh
Exchange energy change after final integration :      0.000000314 Eh
Total energy after final integration           :   -297.835831310 Eh
             **** ENERGY FILE WAS UPDATED (rank02_quasi_planar_nn2.00_perturb0.en.tmp) ****

----------------
TOTAL SCF ENERGY
----------------

Total Energy       :       -297.83583130964473 Eh           -8104.52500 eV

Components:
Nuclear Repulsion  :        348.48648877801924 Eh            9482.79946 eV
Electronic Energy  :       -646.32232040171175 Eh          -17587.32446 eV
One Electron Energy:      -1085.72704296449274 Eh          -29544.13483 eV
Two Electron Energy:        439.40472256278105 Eh           11956.81037 eV

Virial components:
Potential Energy   :       -593.60232972379367 Eh          -16152.74058 eV
Kinetic Energy     :        295.76649841414888 Eh            8048.21559 eV
Virial Ratio       :          2.00699650875468

DFT components:
N(Alpha)           :       30.000003101499 electrons
N(Beta)            :       30.000003101499 electrons
N(Total)           :       60.000006202999 electrons
E(X)               :      -36.939905922748 Eh       
E(C)               :       -2.272683568587 Eh       
E(XC)              :      -39.212589491336 Eh       

---------------
SCF CONVERGENCE
---------------

  Last Energy change         ...    8.3922e-09  Tolerance :   1.0000e-08
  Last MAX-Density change    ...    4.8931e-05  Tolerance :   1.0000e-07
  Last RMS-Density change    ...    3.8636e-06  Tolerance :   5.0000e-09
  Last DIIS Error            ...    1.6428e-03  Tolerance :   5.0000e-07
  Last Orbital Gradient      ...    1.2964e-06  Tolerance :   1.0000e-05
  Last Orbital Rotation      ...    4.3297e-06  Tolerance :   1.0000e-05


----------------
ORBITAL ENERGIES
----------------

  NO   OCC          E(Eh)            E(eV) 
   0   2.0000      -6.803058      -185.1206 
   1   2.0000      -6.803037      -185.1200 
   2   2.0000      -6.802554      -185.1069 
   3   2.0000      -6.799828      -185.0327 
   4   2.0000      -6.799289      -185.0181 
   5   2.0000      -6.799158      -185.0145 
   6   2.0000      -6.778830      -184.4613 
   7   2.0000      -6.778820      -184.4611 
   8   2.0000      -6.778798      -184.4605 
   9   2.0000      -6.778047      -184.4400 
  10   2.0000      -6.778035      -184.4397 
  11   2.0000      -6.778013      -184.4391 
  12   2.0000      -0.772483       -21.0203 
  13   2.0000      -0.687271       -18.7016 
  14   2.0000      -0.687214       -18.7000 
  15   2.0000      -0.571529       -15.5521 
  16   2.0000      -0.571464       -15.5503 
  17   2.0000      -0.567059       -15.4305 
  18   2.0000      -0.450539       -12.2598 
  19   2.0000      -0.402210       -10.9447 
  20   2.0000      -0.382210       -10.4005 
  21   2.0000      -0.359184        -9.7739 
  22   2.0000      -0.359151        -9.7730 
  23   2.0000      -0.339421        -9.2361 
  24   2.0000      -0.339295        -9.2327 
  25   2.0000      -0.309237        -8.4148 
  26   2.0000      -0.284711        -7.7474 
  27   2.0000      -0.284595        -7.7442 
  28   2.0000      -0.257827        -7.0158 
  29   2.0000      -0.257677        -7.0118 
  30   0.0000      -0.126723        -3.4483 
  31   0.0000      -0.126679        -3.4471 
  32   0.0000      -0.117548        -3.1987 
  33   0.0000      -0.094414        -2.5691 
  34   0.0000      -0.037023        -1.0074 
  35   0.0000      -0.036984        -1.0064 
  36   0.0000      -0.005999        -0.1632 
  37   0.0000      -0.002912        -0.0792 
  38   0.0000      -0.002513        -0.0684 
  39   0.0000       0.001539         0.0419 
  40   0.0000       0.009737         0.2649 
*Only the first 10 virtual orbitals were printed.

                    ********************************
                    * MULLIKEN POPULATION ANALYSIS *
                    ********************************

-----------------------
MULLIKEN ATOMIC CHARGES
-----------------------
   0 B :    0.287797
   1 B :    0.289226
   2 B :    0.289497
   3 B :   -0.157229
   4 B :   -0.157266
   5 B :    0.024374
   6 B :   -0.156570
   7 B :   -0.156725
   8 B :    0.025732
   9 B :   -0.157225
  10 B :   -0.157033
  11 B :    0.025422
Sum of atomic charges:    0.0000000

--------------------------------
MULLIKEN REDUCED ORBITAL CHARGES
--------------------------------
  0 B s       :     2.809818  s :     2.809818
      pz      :     0.641516  p :     1.724877
      px      :     0.526348
      py      :     0.557013
      dz2     :     0.014223  d :     0.161769
      dxz     :     0.017588
      dyz     :     0.021054
      dx2y2   :     0.052212
      dxy     :     0.056691
      f0      :     0.002123  f :     0.015739
      f+1     :     0.001671
      f-1     :     0.001371
      f+2     :     0.001039
      f-2     :     0.001055
      f+3     :     0.000087
      f-3     :     0.008394

  1 B s       :     2.811643  s :     2.811643
      pz      :     0.641689  p :     1.720561
      px      :     0.531010
      py      :     0.547862
      dz2     :     0.014208  d :     0.162830
      dxz     :     0.018542
      dyz     :     0.020218
      dx2y2   :     0.044738
      dxy     :     0.065123
      f0      :     0.002140  f :     0.015740
      f+1     :     0.001574
      f-1     :     0.001456
      f+2     :     0.000972
      f-2     :     0.001092
      f+3     :     0.000064
      f-3     :     0.008442

  2 B s       :     2.805681  s :     2.805681
      pz      :     0.644276  p :     1.728451
      px      :     0.565122
      py      :     0.519053
      dz2     :     0.013555  d :     0.160590
      dxz     :     0.021697
      dyz     :     0.016997
      dx2y2   :     0.066457
      dxy     :     0.041884
      f0      :     0.002199  f :     0.015780
      f+1     :     0.001292
      f-1     :     0.001717
      f+2     :     0.001079
      f-2     :     0.000933
      f+3     :     0.000084
      f-3     :     0.008477

  3 B s       :     3.337432  s :     3.337432
      pz      :     0.424757  p :     1.741524
      px      :     0.539994
      py      :     0.776772
      dz2     :     0.008295  d :     0.072901
      dxz     :     0.014540
      dyz     :     0.009042
      dx2y2   :     0.025692
      dxy     :     0.015333
      f0      :     0.000975  f :     0.005372
      f+1     :     0.000750
      f-1     :    -0.000188
      f+2     :     0.000040
      f-2     :     0.000848
      f+3     :    -0.000072
      f-3     :     0.003018

  4 B s       :     3.337441  s :     3.337441
      pz      :     0.423919  p :     1.741490
      px      :     0.666493
      py      :     0.651078
      dz2     :     0.008346  d :     0.072963
      dxz     :     0.008620
      dyz     :     0.014942
      dx2y2   :     0.016649
      dxy     :     0.024406
      f0      :     0.000969  f :     0.005373
      f+1     :     0.000275
      f-1     :     0.000294
      f+2     :     0.000802
      f-2     :     0.000093
      f+3     :     0.000341
      f-3     :     0.002597

  5 B s       :     3.162786  s :     3.162786
      pz      :     0.424233  p :     1.710518
      px      :     0.749154
      py      :     0.537131
      dz2     :     0.003916  d :     0.093291
      dxz     :     0.023874
      dyz     :     0.014183
      dx2y2   :     0.022764
      dxy     :     0.028554
      f0      :     0.001638  f :     0.009032
      f+1     :    -0.000026
      f-1     :     0.000847
      f+2     :     0.000892
      f-2     :     0.000837
      f+3     :     0.001247
      f-3     :     0.003596

  6 B s       :     3.336888  s :     3.336888
      pz      :     0.423858  p :     1.741370
      px      :     0.708130
      py      :     0.609382
      dz2     :     0.008323  d :     0.072943
      dxz     :     0.007989
      dyz     :     0.015530
      dx2y2   :     0.021076
      dxy     :     0.020025
      f0      :     0.000976  f :     0.005369
      f+1     :     0.000095
      f-1     :     0.000469
      f+2     :     0.000551
      f-2     :     0.000333
      f+3     :    -0.000078
      f-3     :     0.003024

  7 B s       :     3.336973  s :     3.336973
      pz      :     0.422940  p :     1.741697
      px      :     0.552326
      py      :     0.766431
      dz2     :     0.008197  d :     0.072681
      dxz     :     0.015389
      dyz     :     0.008182
      dx2y2   :     0.026690
      dxy     :     0.014224
      f0      :     0.000987  f :     0.005373
      f+1     :     0.000680
      f-1     :    -0.000132
      f+2     :     0.000065
      f-2     :     0.000816
      f+3     :     0.000333
      f-3     :     0.002625

  8 B s       :     3.161863  s :     3.161863
      pz      :     0.424495  p :     1.710404
      px      :     0.573347
      py      :     0.712562
      dz2     :     0.003795  d :     0.092963
      dxz     :     0.015838
      dyz     :     0.022039
      dx2y2   :     0.026088
      dxy     :     0.025204
      f0      :     0.001669  f :     0.009038
      f+1     :     0.000682
      f-1     :     0.000117
      f+2     :     0.000840
      f-2     :     0.000847
      f+3     :     0.001229
      f-3     :     0.003653

  9 B s       :     3.337705  s :     3.337705
      pz      :     0.422468  p :     1.741224
      px      :     0.727093
      py      :     0.591663
      dz2     :     0.008141  d :     0.072924
      dxz     :     0.012750
      dyz     :     0.010808
      dx2y2   :     0.015039
      dxy     :     0.026186
      f0      :     0.001003  f :     0.005372
      f+1     :    -0.000020
      f-1     :     0.000555
      f+2     :     0.000728
      f-2     :     0.000137
      f+3     :    -0.000070
      f-3     :     0.003040

 10 B s       :     3.337784  s :     3.337784
      pz      :     0.423599  p :     1.740825
      px      :     0.756998
      py      :     0.560228
      dz2     :     0.008258  d :     0.073053
      dxz     :     0.011256
      dyz     :     0.012260
      dx2y2   :     0.018272
      dxy     :     0.023007
      f0      :     0.000993  f :     0.005370
      f+1     :    -0.000122
      f-1     :     0.000670
      f+2     :     0.000449
      f-2     :     0.000417
      f+3     :     0.000350
      f-3     :     0.002611

 11 B s       :     3.162453  s :     3.162453
      pz      :     0.424288  p :     1.709926
      px      :     0.606592
      py      :     0.679045
      dz2     :     0.003887  d :     0.093171
      dxz     :     0.017411
      dyz     :     0.020567
      dx2y2   :     0.028052
      dxy     :     0.023253
      f0      :     0.001651  f :     0.009029
      f+1     :     0.000557
      f-1     :     0.000257
      f+2     :     0.000838
      f-2     :     0.000875
      f+3     :     0.001256
      f-3     :     0.003596



                     *******************************
                     * LOEWDIN POPULATION ANALYSIS *
                     *******************************

----------------------
LOEWDIN ATOMIC CHARGES
----------------------
   0 B :   -0.212507
   1 B :   -0.211936
   2 B :   -0.214414
   3 B :    0.080297
   4 B :    0.080228
   5 B :    0.052315
   6 B :    0.080175
   7 B :    0.081120
   8 B :    0.050337
   9 B :    0.081231
  10 B :    0.080755
  11 B :    0.052399

-------------------------------
LOEWDIN REDUCED ORBITAL CHARGES
-------------------------------
  0 B s       :     2.410284  s :     2.410284
      pz      :     0.518072  p :     1.982113
      px      :     0.756772
      py      :     0.707270
      dz2     :     0.058873  d :     0.716239
      dxz     :     0.096494
      dyz     :     0.094591
      dx2y2   :     0.229803
      dxy     :     0.236478
      f0      :     0.008428  f :     0.103871
      f+1     :     0.008237
      f-1     :     0.006596
      f+2     :     0.009678
      f-2     :     0.010005
      f+3     :     0.009214
      f-3     :     0.051713

  1 B s       :     2.410249  s :     2.410249
      pz      :     0.517449  p :     1.981654
      px      :     0.744930
      py      :     0.719275
      dz2     :     0.058677  d :     0.716122
      dxz     :     0.095714
      dyz     :     0.094637
      dx2y2   :     0.216752
      dxy     :     0.250342
      f0      :     0.008415  f :     0.103911
      f+1     :     0.007878
      f-1     :     0.007049
      f+2     :     0.008793
      f-2     :     0.010678
      f+3     :     0.009102
      f-3     :     0.051996

  2 B s       :     2.409857  s :     2.409857
      pz      :     0.516848  p :     1.982619
      px      :     0.695952
      py      :     0.769820
      dz2     :     0.058807  d :     0.717988
      dxz     :     0.093482
      dyz     :     0.096434
      dx2y2   :     0.254609
      dxy     :     0.214656
      f0      :     0.008456  f :     0.103951
      f+1     :     0.006277
      f-1     :     0.008667
      f+2     :     0.010590
      f-2     :     0.008339
      f+3     :     0.009336
      f-3     :     0.052286

  3 B s       :     2.640333  s :     2.640333
      pz      :     0.426771  p :     1.940522
      px      :     0.602054
      py      :     0.911697
      dz2     :     0.029220  d :     0.281337
      dxz     :     0.042687
      dyz     :     0.031237
      dx2y2   :     0.086170
      dxy     :     0.092023
      f0      :     0.005735  f :     0.057510
      f+1     :     0.005134
      f-1     :     0.005464
      f+2     :     0.002204
      f-2     :     0.005688
      f+3     :     0.009053
      f-3     :     0.024231

  4 B s       :     2.640416  s :     2.640416
      pz      :     0.426269  p :     1.940482
      px      :     0.774531
      py      :     0.739682
      dz2     :     0.029318  d :     0.281367
      dxz     :     0.030618
      dyz     :     0.043408
      dx2y2   :     0.092319
      dxy     :     0.085703
      f0      :     0.005711  f :     0.057507
      f+1     :     0.005401
      f-1     :     0.005225
      f+2     :     0.005570
      f-2     :     0.002384
      f+3     :     0.011505
      f-3     :     0.021711

  5 B s       :     2.579704  s :     2.579704
      pz      :     0.392981  p :     1.901270
      px      :     0.917877
      py      :     0.590412
      dz2     :     0.031937  d :     0.404432
      dxz     :     0.075931
      dyz     :     0.033281
      dx2y2   :     0.110086
      dxy     :     0.153197
      f0      :     0.006154  f :     0.062280
      f+1     :     0.006067
      f-1     :     0.004022
      f+2     :     0.004928
      f-2     :     0.003603
      f+3     :     0.016441
      f-3     :     0.021065

  6 B s       :     2.640282  s :     2.640282
      pz      :     0.425848  p :     1.940758
      px      :     0.829750
      py      :     0.685160
      dz2     :     0.029339  d :     0.281301
      dxz     :     0.029133
      dyz     :     0.044600
      dx2y2   :     0.092174
      dxy     :     0.086055
      f0      :     0.005721  f :     0.057485
      f+1     :     0.005441
      f-1     :     0.005201
      f+2     :     0.004564
      f-2     :     0.003263
      f+3     :     0.009035
      f-3     :     0.024260

  7 B s       :     2.640633  s :     2.640633
      pz      :     0.424794  p :     1.939469
      px      :     0.615582
      py      :     0.899092
      dz2     :     0.029103  d :     0.281261
      dxz     :     0.044300
      dyz     :     0.029443
      dx2y2   :     0.088214
      dxy     :     0.090201
      f0      :     0.005783  f :     0.057517
      f+1     :     0.005082
      f-1     :     0.005474
      f+2     :     0.002388
      f-2     :     0.005401
      f+3     :     0.011492
      f-3     :     0.021898

  8 B s       :     2.578587  s :     2.578587
      pz      :     0.392228  p :     1.903104
      px      :     0.647849
      py      :     0.863027
      dz2     :     0.032002  d :     0.405574
      dxz     :     0.040037
      dyz     :     0.068251
      dx2y2   :     0.136210
      dxy     :     0.129074
      f0      :     0.006208  f :     0.062398
      f+1     :     0.004397
      f-1     :     0.005753
      f+2     :     0.004032
      f-2     :     0.004240
      f+3     :     0.016388
      f-3     :     0.021380

  9 B s       :     2.640621  s :     2.640621
      pz      :     0.423547  p :     1.939563
      px      :     0.840201
      py      :     0.675815
      dz2     :     0.029070  d :     0.281089
      dxz     :     0.038543
      dyz     :     0.034750
      dx2y2   :     0.089281
      dxy     :     0.089444
      f0      :     0.005835  f :     0.057496
      f+1     :     0.005290
      f-1     :     0.005266
      f+2     :     0.004934
      f-2     :     0.002683
      f+3     :     0.009107
      f-3     :     0.024380

 10 B s       :     2.640378  s :     2.640378
      pz      :     0.424723  p :     1.940300
      px      :     0.881574
      py      :     0.634003
      dz2     :     0.029272  d :     0.281094
      dxz     :     0.035470
      dyz     :     0.037736
      dx2y2   :     0.086829
      dxy     :     0.091787
      f0      :     0.005782  f :     0.057474
      f+1     :     0.005429
      f-1     :     0.005189
      f+2     :     0.003688
      f-2     :     0.003957
      f+3     :     0.011598
      f-3     :     0.021830

 11 B s       :     2.579665  s :     2.579665
      pz      :     0.392619  p :     1.901409
      px      :     0.699137
      py      :     0.809652
      dz2     :     0.031948  d :     0.404276
      dxz     :     0.047251
      dyz     :     0.061456
      dx2y2   :     0.149855
      dxy     :     0.113766
      f0      :     0.006168  f :     0.062251
      f+1     :     0.004717
      f-1     :     0.005392
      f+2     :     0.003675
      f-2     :     0.004741
      f+3     :     0.016478
      f-3     :     0.021080



                      *****************************
                      * MAYER POPULATION ANALYSIS *
                      *****************************

  NA   - Mulliken gross atomic population
  ZA   - Total nuclear charge
  QA   - Mulliken gross atomic charge
  VA   - Mayer's total valence
  BVA  - Mayer's bonded valence
  FA   - Mayer's free valence

  ATOM       NA         ZA         QA         VA         BVA        FA
  0 B      4.7122     5.0000     0.2878     3.2269     3.2269     0.0000
  1 B      4.7108     5.0000     0.2892     3.2244     3.2244     0.0000
  2 B      4.7105     5.0000     0.2895     3.2257     3.2257    -0.0000
  3 B      5.1572     5.0000    -0.1572     3.3245     3.3245     0.0000
  4 B      5.1573     5.0000    -0.1573     3.3245     3.3245     0.0000
  5 B      4.9756     5.0000     0.0244     3.3731     3.3731     0.0000
  6 B      5.1566     5.0000    -0.1566     3.3252     3.3252    -0.0000
  7 B      5.1567     5.0000    -0.1567     3.3231     3.3231    -0.0000
  8 B      4.9743     5.0000     0.0257     3.3739     3.3739    -0.0000
  9 B      5.1572     5.0000    -0.1572     3.3230     3.3230     0.0000
 10 B      5.1570     5.0000    -0.1570     3.3243     3.3243     0.0000
 11 B      4.9746     5.0000     0.0254     3.3728     3.3728    -0.0000

  Mayer bond orders larger than 0.100000
B(  0-B ,  1-B ) :   0.5884 B(  0-B ,  2-B ) :   0.5892 B(  0-B ,  3-B ) :   0.5081 
B(  0-B ,  4-B ) :   0.5076 B(  0-B ,  5-B ) :   0.4439 B(  0-B , 11-B ) :   0.4438 
B(  1-B ,  2-B ) :   0.5876 B(  1-B ,  5-B ) :   0.4438 B(  1-B ,  6-B ) :   0.5077 
B(  1-B ,  7-B ) :   0.5069 B(  1-B ,  8-B ) :   0.4446 B(  2-B ,  8-B ) :   0.4446 
B(  2-B ,  9-B ) :   0.5077 B(  2-B , 10-B ) :   0.5083 B(  2-B , 11-B ) :   0.4432 
B(  3-B ,  4-B ) :   1.4061 B(  3-B , 11-B ) :   1.0944 B(  4-B ,  5-B ) :   1.0944 
B(  5-B ,  6-B ) :   1.0944 B(  6-B ,  7-B ) :   1.4066 B(  7-B ,  8-B ) :   1.0936 
B(  8-B ,  9-B ) :   1.0941 B(  9-B , 10-B ) :   1.4053 B( 10-B , 11-B ) :   1.0947 


-------
TIMINGS
-------

Total SCF time: 0 days 0 hours 1 min 7 sec 

Total time                  ....      67.699 sec
Sum of individual times     ....      64.850 sec  ( 95.8%)

SCF preparation             ....       0.632 sec  (  0.9%)
Fock matrix formation       ....      60.888 sec  ( 89.9%)
  Startup                   ....       0.037 sec  (  0.1% of F)
  Split-RI-J                ....       6.367 sec  ( 10.5% of F)
  Chain of spheres X        ....      46.989 sec  ( 77.2% of F)
  XC integration            ....       9.452 sec  ( 15.5% of F)
    XC Preparation          ....       0.000 sec  (  0.0% of XC)
    Basis function eval.    ....       1.577 sec  ( 16.7% of XC)
    Density eval.           ....       2.240 sec  ( 23.7% of XC)
    XC-Functional eval.     ....       0.112 sec  (  1.2% of XC)
    XC-Potential eval.      ....       3.351 sec  ( 35.5% of XC)
Diagonalization             ....       0.000 sec  (  0.0%)
Density matrix formation    ....       0.444 sec  (  0.7%)
Total Energy calculation    ....       0.155 sec  (  0.2%)
Population analysis         ....       0.116 sec  (  0.2%)
[...]
     28       0.244156  -0.031923   0.420087  -0.066371  -0.012774  -0.188925
     29       0.100852   0.002328   0.115318   0.003023   0.054782   0.004864
     30       0.158598   0.014866  -0.008628  -0.035284   0.336608   0.169765
     31      -0.278308   0.367538  -0.214009   0.025161   0.003599   0.158395
     32      -0.102336   0.105095  -0.048346  -0.054279  -0.001132  -0.006528
     33      -0.035831  -0.049446   0.089532  -0.250924   0.059584  -0.273863
     34      -0.050511   0.090382   0.041569  -0.343158   0.119961  -0.386723
     35       0.000406  -0.004029   0.001534  -0.006293  -0.028782   0.002717
                 30         31         32         33         34         35    
      0       0.443358   0.113503  -0.155671   0.454584  -0.032869  -0.054640
      1       0.220637  -0.140959  -0.071604   0.208925   0.056296  -0.032178
      2      -0.148352  -0.012940   0.020053  -0.095608   0.000910   0.009984
      3       0.149367  -0.391374   0.139930  -0.409868   0.064536  -0.000325
      4      -0.281981   0.152231  -0.099025   0.289925   0.000967   0.065049
      5       0.084306  -0.118797   0.018890  -0.092709   0.007792  -0.006078
      6      -0.139561   0.116370   0.015988  -0.046880  -0.032164   0.056669
      7       0.223012   0.442095   0.171181  -0.500705  -0.055811  -0.032076
      8       0.061117   0.130094   0.018463  -0.091201  -0.008654  -0.004195
      9      -0.312793  -0.142503  -0.059866  -0.160058  -0.011445   0.060753
     10       0.070861  -0.090409   0.382923   0.092225  -0.112936  -0.472768
     11       0.085570   0.039508  -0.022239   0.046539  -0.000249   0.012599
     12      -0.176467   0.132277   0.251617  -0.034521   0.027705  -0.331213
     13      -0.287434  -0.001467  -0.294808  -0.181427   0.007035   0.359743
     14       0.091717  -0.023529  -0.021071   0.047050   0.002764   0.010740
     15       0.267785  -0.126506   0.003408   0.000634  -0.174520   0.381397
     16      -0.025409   0.010907   0.034735   0.011165  -0.006544  -0.045789
     17       0.000818   0.004219   0.022987   0.000392  -0.003641  -0.003292
     18      -0.177061   0.010104  -0.302108   0.001578   0.276515  -0.278852
     19       0.220325  -0.225188  -0.243693  -0.184699   0.227372  -0.184888
     20      -0.075697   0.054656  -0.018981   0.047122   0.007913  -0.003036
     21      -0.112286   0.324861   0.129568   0.175175  -0.116746   0.090381
     22      -0.094786  -0.064326   0.365458   0.060308  -0.414440   0.215408
     23      -0.024107   0.088559  -0.022976   0.045543   0.009721  -0.008946
     24       0.009884  -0.122389  -0.031721  -0.010096  -0.177161  -0.004909
     25      -0.023883   0.266048  -0.014158  -0.004624   0.379585  -0.048553
     26      -0.004049  -0.001013   0.023157   0.000504  -0.000423   0.004889
     27      -0.113959  -0.185790   0.361865   0.160085   0.426784   0.140177
     28       0.027415  -0.288099  -0.140109   0.093984  -0.191863  -0.034239
     29      -0.008417  -0.090282  -0.022060   0.045422  -0.009969  -0.006530
     30       0.022365   0.171279  -0.381610  -0.139388  -0.409351  -0.245252
     31      -0.246492  -0.200881  -0.070967   0.121898  -0.078839  -0.077210
     32      -0.063901  -0.066099  -0.019210   0.046562  -0.008551  -0.001418
     33       0.139369   0.100168   0.028601   0.008754   0.158717   0.185814
     34       0.197735   0.140048  -0.019932  -0.006976   0.189179   0.287503
     35       0.000995  -0.004375   0.022988   0.000387   0.002387  -0.004716


-----------
IR SPECTRUM
-----------

 Mode   freq       eps      Int      T**2         TX        TY        TZ
       cm**-1   L/(mol*cm) km/mol    a.u.
----------------------------------------------------------------------------
  6:    199.90   0.000031    0.16  0.000049  ( 0.004146 -0.005633 -0.000250)
  7:    200.53   0.000032    0.16  0.000049  ( 0.005602  0.004191 -0.000343)
  8:    228.88   0.002447   12.37  0.003336  (-0.000295 -0.000218 -0.057759)
  9:    372.61   0.000000    0.00  0.000000  (-0.000015 -0.000084  0.000001)
 10:    405.41   0.000325    1.64  0.000250  ( 0.010895 -0.011470  0.000015)
 11:    405.58   0.000324    1.64  0.000249  ( 0.011499  0.010822 -0.000081)
 12:    454.88   0.000045    0.23  0.000031  (-0.000102 -0.000015 -0.005586)
 13:    472.92   0.000196    0.99  0.000129  (-0.008554 -0.007478  0.000042)
 14:    473.04   0.000190    0.96  0.000126  (-0.007395  0.008418  0.000044)
 15:    517.10   0.000003    0.02  0.000002  (-0.000913  0.001022  0.000027)
 16:    517.39   0.000003    0.01  0.000002  (-0.000946 -0.000878  0.000050)
 17:    521.62   0.000000    0.00  0.000000  (-0.000025  0.000146 -0.000046)
 18:    534.44   0.000025    0.13  0.000015  (-0.000027 -0.000061 -0.003824)
 19:    574.67   0.002030   10.26  0.001103  ( 0.029114  0.015964 -0.000172)
 20:    574.90   0.002026   10.24  0.001100  ( 0.015913 -0.029097  0.000035)
 21:    629.59   0.000001    0.01  0.000001  (-0.000517  0.000664 -0.000012)
 22:    629.64   0.000001    0.01  0.000001  (-0.000632 -0.000550  0.000044)
 23:    693.02   0.000119    0.60  0.000054  (-0.000014 -0.000032 -0.007332)
 24:    827.40   0.000000    0.00  0.000000  ( 0.000049 -0.000021  0.000000)
 25:    930.65   0.009985   50.46  0.003348  (-0.026038  0.051674 -0.000116)
 26:    930.82   0.010006   50.56  0.003355  ( 0.051717  0.026072 -0.000310)
 27:    975.25   0.004061   20.52  0.001299  (-0.028648 -0.021876  0.000223)
 28:    975.29   0.004071   20.58  0.001303  (-0.021898  0.028691 -0.000023)
 29:   1160.58   0.000000    0.00  0.000000  ( 0.000130 -0.000155 -0.000014)
 30:   1171.01   0.004951   25.02  0.001319  (-0.034206 -0.012218  0.000211)
 31:   1171.18   0.004933   24.93  0.001314  ( 0.012154 -0.034156  0.000118)
 32:   1223.79   0.000071    0.36  0.000018  (-0.000044 -0.000022 -0.004252)
 33:   1280.77   0.001658    8.38  0.000404  ( 0.000158  0.000145  0.020095)
 34:   1339.85   0.001417    7.16  0.000330  (-0.005900  0.017182 -0.000058)
 35:   1339.93   0.001416    7.16  0.000330  ( 0.017182  0.005888 -0.000091)

* The epsilon (eps) is given for a Dirac delta lineshape.
** The dipole moment derivative (T) already includes vibrational overlap.

The first frequency considered to be a vibration is 6
The total number of vibrations considered is 30


--------------------------
THERMOCHEMISTRY AT 298.15K
--------------------------

Temperature         ...   298.15 K
Pressure            ...     1.00 atm
Total Mass          ...   129.72 AMU
Quasi RRHO          ...     True
Cut-Off Frequency   ...     1.00 cm^-1

Throughout the following assumptions are being made:
  (1) The electronic state is orbitally nondegenerate
  (2) There are no thermally accessible electronically excited states
  (3) Hindered rotations indicated by low frequency modes are not
      treated as such but are treated as vibrations and this may
      cause some error
  (4) All equations used are the standard statistical mechanics
      equations for an ideal gas
  (5) All vibrations are strictly harmonic

freq.     199.90  E(vib)   ...       0.35 
freq.     200.53  E(vib)   ...       0.35 
freq.     228.88  E(vib)   ...       0.32 
freq.     372.61  E(vib)   ...       0.21 
freq.     405.41  E(vib)   ...       0.19 
freq.     405.58  E(vib)   ...       0.19 
freq.     454.88  E(vib)   ...       0.16 
freq.     472.92  E(vib)   ...       0.15 
freq.     473.04  E(vib)   ...       0.15 
freq.     517.10  E(vib)   ...       0.13 
freq.     517.39  E(vib)   ...       0.13 
freq.     521.62  E(vib)   ...       0.13 
freq.     534.44  E(vib)   ...       0.13 
freq.     574.67  E(vib)   ...       0.11 
freq.     574.90  E(vib)   ...       0.11 
freq.     629.59  E(vib)   ...       0.09 
freq.     629.64  E(vib)   ...       0.09 
freq.     693.02  E(vib)   ...       0.07 
freq.     827.40  E(vib)   ...       0.04 
freq.     930.65  E(vib)   ...       0.03 
freq.     930.82  E(vib)   ...       0.03 
freq.     975.25  E(vib)   ...       0.03 
freq.     975.29  E(vib)   ...       0.03 
freq.    1160.58  E(vib)   ...       0.01 
freq.    1171.01  E(vib)   ...       0.01 
freq.    1171.18  E(vib)   ...       0.01 
freq.    1223.79  E(vib)   ...       0.01 
freq.    1280.77  E(vib)   ...       0.01 
freq.    1339.85  E(vib)   ...       0.01 
freq.    1339.93  E(vib)   ...       0.01 

------------
INNER ENERGY
------------

The inner energy is: U= E(el) + E(ZPE) + E(vib) + E(rot) + E(trans)
    E(el)   - is the total energy from the electronic structure calculation
              = E(kin-el) + E(nuc-el) + E(el-el) + E(nuc-nuc)
    E(ZPE)  - the the zero temperature vibrational energy from the frequency calculation
    E(vib)  - the the finite temperature correction to E(ZPE) due to population
              of excited vibrational states
    E(rot)  - is the rotational thermal energy
    E(trans)- is the translational thermal energy

Summary of contributions to the inner energy U:
Electronic energy                ...   -297.87422668 Eh
Zero point energy                ...      0.04951059 Eh      31.07 kcal/mol
Thermal vibrational correction   ...      0.00526887 Eh       3.31 kcal/mol
Thermal rotational correction    ...      0.00141627 Eh       0.89 kcal/mol
Thermal translational correction ...      0.00141627 Eh       0.89 kcal/mol
-----------------------------------------------------------------------
Total thermal energy                   -297.81661468 Eh


Summary of corrections to the electronic energy:
(perhaps to be used in another calculation)
Total thermal correction                  0.00810141 Eh       5.08 kcal/mol
Non-thermal (ZPE) correction              0.04951059 Eh      31.07 kcal/mol
-----------------------------------------------------------------------
Total correction                          0.05761200 Eh      36.15 kcal/mol


--------
ENTHALPY
--------

The enthalpy is H = U + kB*T
                kB is Boltzmann's constant
Total thermal energy              ...   -297.81661468 Eh 
Thermal Enthalpy correction       ...      0.00094421 Eh       0.59 kcal/mol
-----------------------------------------------------------------------
Total Enthalpy                    ...   -297.81567048 Eh


Note: Only C1 symmetry has been detected, increase convergence thresholds 
      if your molecule has a higher symmetry. Symmetry factor of 1.0 is   
      used for the rotational entropy correction. 
 

Note: Rotational entropy computed according to Herzberg 
Infrared and Raman Spectra, Chapter V,1, Van Nostrand Reinhold, 1945 
Point Group:  C1, Symmetry Number:   1  
Rotational constants in cm-1:     0.060628     0.060615     0.031089 

Vibrational entropy computed according to the QRRHO of S. Grimme
Chem.Eur.J. 2012 18 9955 using a reference frequency of 100.0 cm-1


-------
ENTROPY
-------

The entropy contributions are T*S = T*(S(el)+S(vib)+S(rot)+S(trans))
     S(el)   - electronic entropy
     S(vib)  - vibrational entropy
     S(rot)  - rotational entropy
     S(trans)- translational entropy
The entropies will be listed as multiplied by the temperature to get
units of energy

Electronic entropy                ...      0.00000000 Eh      0.00 kcal/mol
Vibrational entropy               ...      0.00797673 Eh      5.01 kcal/mol
Rotational entropy                ...      0.01379603 Eh      8.66 kcal/mol
Translational entropy             ...      0.01923977 Eh     12.07 kcal/mol
-----------------------------------------------------------------------
Final entropy term                ...      0.04101253 Eh     25.74 kcal/mol

In case the symmetry of your molecule has not been determined correctly
or in case you have a reason to use a different symmetry number we print 
out the resulting rotational entropy values for sn=1,12:

 non-linear molecules -----------------------------------
|  sn= 1 | S(rot)=       0.01379603 Eh      8.66 kcal/mol|
|  sn= 2 | S(rot)=       0.01314157 Eh      8.25 kcal/mol|
|  sn= 3 | S(rot)=       0.01275874 Eh      8.01 kcal/mol|
|  sn= 4 | S(rot)=       0.01248711 Eh      7.84 kcal/mol|
|  sn= 5 | S(rot)=       0.01227642 Eh      7.70 kcal/mol|
|  sn= 6 | S(rot)=       0.01210428 Eh      7.60 kcal/mol|
|  sn= 7 | S(rot)=       0.01195873 Eh      7.50 kcal/mol|
|  sn= 8 | S(rot)=       0.01183266 Eh      7.43 kcal/mol|
|  sn= 9 | S(rot)=       0.01172145 Eh      7.36 kcal/mol|
|  sn=10 | S(rot)=       0.01162197 Eh      7.29 kcal/mol|
|  sn=11 | S(rot)=       0.01153198 Eh      7.24 kcal/mol|
|  sn=12 | S(rot)=       0.01144982 Eh      7.18 kcal/mol|
 linear molecules ---------------------------------------
|  Dinfh | S(rot)=       0.00860296 Eh      5.40 kcal/mol|
|  Cinfv | S(rot)=       0.00925742 Eh      5.81 kcal/mol|
 --------------------------------------------------------


-------------------
GIBBS FREE ENERGY
-------------------

The Gibbs free energy is G = H - T*S

Total enthalpy                    ...   -297.81567048 Eh 
Total entropy correction          ...     -0.04101253 Eh    -25.74 kcal/mol
-----------------------------------------------------------------------
Final Gibbs free energy         ...   -297.85668300 Eh

For completeness - the Gibbs free energy minus the electronic energy
G-E(el)                           ...      0.01754368 Eh     11.01 kcal/mol


Maximum memory used throughout the entire PROP-calculation: 94.8 MB

--------------------------------
SUGGESTED CITATIONS FOR THIS RUN
--------------------------------

Below you find a list of papers that are relevant to this ORCA run
We neither can nor want to force you to cite these papers, but we appreciate if you do
You receive ORCA, which is the product of decades of hard work by many enthusiastic individuals, for free
The only thing we kindly ask in return is that you cite our papers,
We deeply appreciate it, if you show your appreciation for ORCA by not just citing the generic ORCA reference.

Please note that relegating all ORCA citations to the supporting information does *not* help us.
SI sections are not indexed - citations you put there will not count into any citation statistics
But we need these citations in order to attract the funding resources that allow us to do what we are doing

Therefore, if you are a happy ORCA user, please consider citing a few of the papers listed below in the main body of your paper

In addition to the list printed below, the program has created the file rank02_quasi_planar_nn2.00_perturb0.bibtex that contains the list in bibtex format
You can import this file easily into all common literature databanks and citation aid programs

It goes without saying that in many instances, there are alternative algorithms to achieve similar
results as the ones you have gotten from ORCA. It is, of course, also the case that in some instances
ORCA just re-implements algorithms worked out by others. We are fully aware of that and we are also
fully appreciative of our colleagues work. Hence this citation list should not be read as indicating
that the listed papers, which are focused on our own work, are the only ones worth citing. It simply
meant to make it easier for users to cite ORCA specific papers. It is not a substitute for doing your
own literature research and citing the relevant literature in a scientifically appropriate manner.

List of essential papers. We consider these as the minimum necessary citations

  1. Neese, F.
     Software update: the ORCA program system, version 6.0
     WIRES Comput. Molec. Sci. 2025 15(1), e70019
     doi.org/10.1002/wcms.70019

List of papers to cite with high priority. The work reported in these papers was absolutely
necessary for this run to complete.
Our perspective: the developers of density functionals and basis sets usually get cited in chemistry papers
Good! But without the algorithms to do something with them, the functionals or basis sets would not do anything.
Hence, in our opinion, the algorithm design and method developments papers are equally worthy of getting cited

  1. Neese, F.
     An improvement of the resolution of the identity approximation for the formation of the Coulomb matrix
     J. Comp. Chem. 2003 24(14), 1740-1747
     doi.org/10.1002/jcc.10318
  2. Neese, F.; Wennmohs, F.; Hansen, A.; Becker, U.
     Efficient, approximate and parallel Hartree-Fock and hybrid DFT calculations. A 'chain-of-spheres' algorithm for the Hartree-Fock exchange
     Chem. Phys. 2009 356(1-3), 98-109
     doi.org/10.1016/j.chemphys.2008.10.036
  3. Grimme, S.; Antony, J.; Ehrlich, S.; Krieg, H.
     A consistent and accurate ab initio parametrization of density functional dispersion correction (DFT-D) for the 94 elements H-Pu
     J. Chem. Phys. 2010 132 , 154104
     doi.org/10.1063/1.3382344
  4. Grimme, S.; Ehrlich, S.; Goerigk, L.
     Effect of the damping function in dispersion corrected density functional theory
     J. Comput. Chem. 2011 32(7), 1456-1465
     doi.org/10.1002/jcc.21759
  5. Bykov, D.; Petrenko, T.; Izsak, R.; Kossmann, S.; Becker, U.; Valeev, E.; Neese, F.
     Efficient implementation of the analytic second derivatives of Hartree-Fock and hybrid DFT energies: a detailed analysis of different approximations
     Molec. Phys. 2015 113 , 1961-1977
     doi.org/10.1080/00268976.2015.1025114
  6. Helmich-Paris, B.; de Souza, B.; Neese, F.; Izsák, R.
     An improved chain of spheres for exchange algorithm
     J. Chem. Phys. 2021 155(10), 104109
     doi.org/10.1063/5.0058766
  7. Neese, F.
     The SHARK Integral Generation and Digestion System
     J. Comp. Chem. 2022 44(3), 381
     doi.org/10.1002/jcc.26942

List of suggested additional citations. These are papers that are important in the 'surrounding' of 
of this run, or papers that preceded the highly important papers. If you like your results we are grateful for a citation.

  1. Izsak, R.; Neese, F.
     An overlap fitted chain of spheres exchange method
     J. Chem. Phys. 2011 135 , 144105
     doi.org/10.1063/1.3646921
  2. Izsak, R.; Hansen, A.; Neese, F.
     The resolution of identity and chain of spheres approximations for the LPNO-CCSD singles Fock term
     Molec. Phys. 2012 110 , 2413-2417
     doi.org/10.1080/00268976.2012.687466
  3. Neese, F.
     The ORCA program system
     WIRES Comput. Molec. Sci. 2012 2(1), 73-78
     doi.org/10.1002/wcms.81
  4. Izsak, R.; Neese, F.; Klopper, W.
     Robust fitting techniques in the chain of spheres approximation to the Fock exchange: The role of the complementary space
     J. Chem. Phys. 2013 139 , 
     doi.org/10.1063/1.4819264
  5. Neese, F.
     Software update: the ORCA program system, version 4.0
     WIRES Comput. Molec. Sci. 2018 8(1), 1-6
     doi.org/10.1002/wcms.1327
  6. Neese, F.; Wennmohs, F.; Becker, U.; Riplinger, C.
     The ORCA quantum chemistry program package
     J. Chem. Phys. 2020 152(22), 224108
     doi.org/10.1063/5.0004608
  7. Neese, F.
     Software update: The ORCA program system—Version 5.0
     WIRES Comput. Molec. Sci. 2022 12(1), e1606
     doi.org/10.1002/wcms.1606

List of optional additional citations

  1. Neese, F.
     Approximate second-order SCF convergence for spin unrestricted wavefunctions
     Chem. Phys. Lett. 2000 325(1-3), 93-98
     doi.org/10.1016/s0009-2614(00)00662-x

Timings for individual modules:

Sum of individual times          ...     1277.890 sec (=  21.298 min)
Startup calculation              ...       25.752 sec (=   0.429 min)   2.0 %
SCF iterations                   ...      358.112 sec (=   5.969 min)  28.0 %
Property integrals               ...      127.304 sec (=   2.122 min)  10.0 %
SCF Response                     ...       98.223 sec (=   1.637 min)   7.7 %
Property calculations            ...      439.482 sec (=   7.325 min)  34.4 %
SCF Gradient evaluation          ...      228.770 sec (=   3.813 min)  17.9 %
Geometry relaxation              ...        0.246 sec (=   0.004 min)   0.0 %
                             ****ORCA TERMINATED NORMALLY****
TOTAL RUN TIME: 0 days 0 hours 21 minutes 25 seconds 228 msec
