
                                 *****************
                                 * O   R   C   A *
                                 *****************

                                            #,                                       
                                            ###                                      
                                            ####                                     
                                            #####                                    
                                            ######                                   
                                           ########,                                 
                                     ,,################,,,,,                         
                               ,,#################################,,                 
                          ,,##########################################,,             
                       ,#########################################, ''#####,          
                    ,#############################################,,   '####,        
                  ,##################################################,,,,####,       
                ,###########''''           ''''###############################       
              ,#####''   ,,,,##########,,,,          '''####'''          '####       
            ,##' ,,,,###########################,,,                        '##       
           ' ,,###''''                  '''############,,,                           
         ,,##''                                '''############,,,,        ,,,,,,###''
      ,#''                                            '''#######################'''  
     '                                                          ''''####''''         
             ,#######,   #######,   ,#######,      ##                                
            ,#'     '#,  ##    ##  ,#'     '#,    #''#        ,####,    ,#,          
            ##       ##  ##   ,#'  ##            #'  '#       #'       ,# #          
            ##       ##  #######   ##           ,######,      #####,      #          
            '#,     ,#'  ##    ##  '#,     ,#' ,#      #,     #,   #      #          
             '#######'   ##     ##  '#######'  #'      '#     '####' #    #          



                #########################################################
                #                        -***-                          #
                #          Department of theory and spectroscopy        #
                #                                                       #
                #                      Frank Neese                      #
                #                                                       #
                #     Directorship, Architecture, Infrastructure        #
                #                    SHARK, DRIVERS                     #
                #        Core code/Algorithms in most modules           #
                #                                                       #
                #        Max Planck Institute fuer Kohlenforschung      #
                #                Kaiser Wilhelm Platz 1                 #
                #                 D-45470 Muelheim/Ruhr                 #
                #                      Germany                          #
                #                                                       #
                #                  All rights reserved                  #
                #                        -***-                          #
                #########################################################


                         Program Version 6.1.1  -  RELEASE   -
                                (GIT: $487d211c$)
                          ($2025-11-21 10:33:24 +0100$)
                                                                         
                                  - NO-DMRG VERSION -                    
                                                                         


 With contributions from (in alphabetic order):
[Max-Planck-Institut fuer Kohlenforschung]                               
  Daniel Aravena         : Magnetic Suceptibility                        
  Michael Atanasov       : Ab Initio Ligand Field Theory (pilot matlab implementation)
  Alexander A. Auer      : GIAO ZORA, VPT2 properties, NMR spectrum      
  Ute Becker             : All parallelization in ORCA, NUMFREQ, NUMCALC 
  Giovanni Bistoni       : ED, misc. LED, open-shell LED, HFLD           
  Dmytro Bykov           : pre 5.0 version of the SCF Hessian            
  Marcos Casanova-Páez   : Triplet and SCS-CIS(D). UHF-(DLPNO)-IP/EA/STEOM-CCSD. UHF-CVS-IP/STEOM-CCSD   
  Vijay G. Chilkuri      : MRCI spin determinant printing, contributions to CSF-ICE 
  Pauline Colinet        : FMM embedding                                 
  Dipayan Datta          : RHF DLPNO-CCSD density                        
  Achintya Kumar Dutta   : EOM-CC, STEOM-CC                              
  Nicolas Foglia         : Exact transition moments, OPA infrastructure, MCD improvements    
  Dmitry Ganyushin       : Spin-Orbit,Spin-Spin,Magnetic field MRCI      
  Miquel Garcia-Rates    : C-PCM and meta-GGA Hessian, CCSD/C-PCM, Gaussian charge scheme 
  Tiago L. C. Gouveia    : GS-ROHF, GS-ROCIS                             
  Yang Guo               : DLPNO-NEVPT2, F12-NEVPT2, CIM, IAO-localization        
  Andreas Hansen         : Spin unrestricted coupled pair/coupled cluster methods 
  Ingolf Harden          : AUTO-CI MPn and infrastructure                
  Benjamin Helmich-Paris : MC-RPA, TRAH-(SCF,CASSCF), AVAS, COSX integrals, SCF dyn. polar., MC-PDFT, srDFT 
  Lee Huntington         : MR-EOM, pCC                                   
  Robert Izsak           : Overlap fitted RIJCOSX, COSX-SCS-MP3, EOM     
  Riya Kayal             : Wick's Theorem for AUTO-CI, AUTO-CI UHF-CCSDT 
  Emily Kempfer          : AUTO-CI RHF CISDT and CCSDT, approximate NEVPT4
  Christian Kollmar      : KDIIS, OOCD, Brueckner-CCSD(T), CCSD density, CASPT2, CASPT2-K, improved NEVPT2 
  Axel Koslowski         : Symmetry handling                             
  Simone Kossmann        : meta-GGA functionals, TD-DFT gradient, OOMP2, (MP2 Hessian; deprecated post 5.0) 
  Lucas Lang             : DCDCAS, Hyperfine gauge corrections, ICE-SOC+SSC
  Marvin Lechner         : AUTO-CI (C++ implementation), FIC-MRCC        
  Spencer Leger          : CASSCF response                               
  Dagmar Lenk            : GEPOL surface, SMD, ORCA-2-JSON               
  Dimitrios Liakos       : Extrapolation schemes; Compound Job, Property file
  Dimitrios Manganas     : Further ROCIS development; embedding schemes. LFT, Crystal Embedding 
  Dimitrios Pantazis     : SARC Basis sets                               
  Anastasios Papadopoulos: AUTO-CI, single reference methods and gradients 
  Taras Petrenko         : pre 6.0 DFT Hessian and TD-DFT gradient,  ECA, NRVS 
  Petra Pikulova         : Analytic Raman intensities                    
  Peter Pinski           : DLPNO-MP2, DLPNO-MP2 Gradient                 
  Shashank Vittal Rao    : ES-AILFT, MagRelax                            
  Christoph Reimann      : Effective Core Potentials                     
  Marius Retegan         : Local ZFS, SOC                                
  Christoph Riplinger    : Optimizer, TS searches, QM/MM, DLPNO-CCSD(T), (RO)-DLPNO pert. Triples 
  Michael Roemelt        : Original ROCIS implementation, recursive CI coupling coefficients
  Masaaki Saitow         : Open-shell DLPNO-CCSD energy and density      
  Barbara Sandhoefer     : DKH picture change effects                    
  Yorick L. A. Schmerwitz: GMF and freeze-and-release deltaSCF, NEB S-IDPP initial path                    
  Kantharuban Sivalingam : CASSCF convergence/infrastructure, NEVPT2, NEVPT3, NEVPT4(SD), FIC-MRCI and CEPA variants
  Bernardo de Souza      : ESD, SOC TD-DFT                               
  Georgi L. Stoychev     : AutoAux, RI-MP2 NMR, DLPNO-MP2 response, X2C  
  Van Anh Tran           : RI-MP2 g-tensors                              
  Willem Van den Heuvel  : Paramagnetic NMR                              
  Zikuan Wang            : NOTCH, Electric field optimization            
  Frank Wennmohs         : Technical directorship and infrastructure     
  Hang Xu                : AUTO-CI-Response properties                   
                                                                         
[FACCTs GmbH]                                                            
  Markus Bursch, Nicolas Foglia, Miquel Garcia-Rates, Ingolf Harden, Hagen Neugebauer, Anastasios Papadopoulos, 
  Christoph Riplinger, Bernardo de Souza, Georgi L. Stoychev                                                    
                                                                 
  APM, various basis sets, CI-OPT, improved COSX, DLPNO-Multilevel,           
  DOCKER, DRACO, updates on ESD, Fragmentator, GOAT, IRC, LR-CPCM, L-BFGS, MBIS, meta-GGA TD-DFT gradient, ML-optimized integration grids, 
  MM, NACMEs, nearIR, NEB, NEB-TS, NL-DFT gradient (VV10), 2- and 3-layer-ONIOM, interface openCOSMO-RS, QMMM,   
  Crystal-QMMM, RESP, rigid body optimization, SF, symmetry and pop. for TD-DFT, various functionals, SOLVATOR                                   
                                                                         
[Other institutions]                                                     
  V. Asgeirsson          : NEB                                           
  Christoph Bannwarth    : sTDA-DFT, sTD-DFT, PBEh-3c, B97-3c, D3        
  Giovanni Bistoni       : ETS/NOCV, ADLD/ADEX, COVALED                  
  Martin Brehm           : Molecular dynamics                            
  Ronald Cardenas        : ETS/NOCV                                      
  Martina Colucci        : COVALED                                       
  Sebastian Ehlert       : rSCAN, r2SCAN, r2SCAN-3c, D4, dhf basis sets  
  Marvin Friede          : D4 for Fr, Ra, Ac-Lr                          
  Lars Goerigk           : TD-DFT with DH, B97 family of functionals     
  Stefan Grimme          : VdW corrections, initial TS optimization, DFT functionals, gCP, sTDA/sTD-DF 
  Waldemar Hujo          : DFT-NL                                        
  H. Jonsson             : NEB                                           
  Holger Kruse           : gCP                                           
  Marcel Mueller         : wB97X-3c, vDZP basis set                      
  Hagen Neugebauer       : wr2SCAN, Native XTB                           
  Gianluca Regni         : ADLD/ADEX                                     
  Tobias Risthaus        : pre 6.0 range-separated hybrid DFT and stability analysis
  Lukas Wittmann         : regularized MP2, r2SCAN double-hybrids, wr2SCAN        
                                                                         
We gratefully acknowledge several colleagues who have allowed us to      
interface, adapt or use parts of their codes:                            
  Ed Valeev, F. Pavosevic, A. Kumar             : LibInt (2-el integral package), F12 methods 
  Garnet Chan, S. Sharma, J. Yang, R. Olivares  : DMRG                   
  Ulf Ekstrom                                   : XCFun DFT Library      
  Mihaly Kallay                                 : mrcc  (arbitrary order and MRCC methods)
  Frank Weinhold                                : gennbo (NPA and NBO analysis)           
  Simon Mueller                                 : openCOSMO-RS                            
  Christopher J. Cramer and Donald G. Truhlar   : smd solvation model                     
  S Lehtola, MJT Oliveira, MAL Marques          : LibXC Library                           
  Liviu Ungur et al                             : ANISO software                          


 Your calculation uses the libint2 library for the computation of 2-el integrals
 For citations please refer to: http://libint.valeyev.net

 Your ORCA version has been built with support for libXC version: 7.0.0
 For citations please refer to: https://libxc.gitlab.io

 This ORCA versions uses:
   CBLAS   interface :  Fast vector & matrix operations
   LAPACKE interface :  Fast linear algebra routines
   SCALAPACK package :  Parallel linear algebra routines
   Shared memory     :  Shared parallel matrices
   BLAS/LAPACK       :  OpenBLAS 0.3.29  USE64BITINT DYNAMIC_ARCH NO_AFFINITY Zen SINGLE_THREADED
        Core in use  :  Zen
   Copyright (c) 2011-2014, The OpenBLAS Project


  ***********************************
  * Starting time: Thu Apr 23 10:08:14 2026
  * Host name:     vmi3233575
  * Process ID:    1118848
  * Working dir.:  /root/b12_scan/jobs/cuboctahedron_nn2.00_perturb0
  ***********************************

NOTE: MaxCore=2500 MB was set to SCF,MP2,MDCI,CIPSI,MRCI,RASCI and CIS
      => If you want to overwrite this, your respective input block should be placed after the MaxCore statement
Your calculation utilizes the atom-pairwise dispersion correction
with the Becke-Johnson damping scheme (D3BJ)


================================================================================

----- Orbital basis set information -----
Your calculation utilizes the basis: def2-SVP
   F. Weigend and R. Ahlrichs, Phys. Chem. Chem. Phys. 7, 3297 (2005).

----- AuxJ basis set information -----
Your calculation utilizes the auxiliary basis: def2/J
   H-Rn: F. Weigend, Phys. Chem. Chem. Phys. 8, 1057 (2006).
   Fr-Lr: K. Eichkorn, F. Weigend, O. Treutler, R. Ahlrichs; Theor. Chem. Acc. 97, 119 (1997).

================================================================================
                                        WARNINGS
                       Please study these warnings very carefully!
================================================================================


WARNING: Geometry Optimization
  ===> : Switching off AutoStart
         For restart on a previous wavefunction, please use MOREAD

================================================================================
                                       INPUT FILE
================================================================================
NAME = cuboctahedron_nn2.00_perturb0.inp
|  1> ! BP86 def2-SVP def2/J RI Opt TightSCF D3BJ
|  2> ! SlowConv
|  3> 
|  4> %pal nprocs 8 end
|  5> %maxcore 2500
|  6> 
|  7> %geom
|  8>   MaxIter 300
|  9> end
| 10> 
| 11> * xyz 0 1
| 12> B      0.01885953     -1.43402929     -1.31815016
| 13> B     -1.39847854     -0.08035041     -1.35997430
| 14> B     -1.21861356     -1.27215142     -0.10556029
| 15> B     -0.18981322     -1.50770473      1.42041246
| 16> B     -1.76296818     -0.03281875      1.22732692
| 17> B     -1.52405367      1.33257471     -0.04744502
| 18> B      0.06174458      1.57059057     -1.43349376
| 19> B      1.61918308     -0.09977920     -1.36148705
| 20> B      1.54973409     -1.40011172     -0.11152489
| 21> B     -0.13825881      1.34555469      1.44724283
| 22> B      1.26277083     -0.03137634      1.39032981
| 23> B      1.49534040      1.44641243      0.05330591
| 24> *
| 25> 
| 26>                          ****END OF INPUT****
================================================================================

                       *****************************
                       * Geometry Optimization Run *
                       *****************************

Geometry optimization settings:
Update method            Update   .... BFGS
Choice of coordinates    CoordSys .... (2022) Redundant Internals
Initial Hessian          InHess   .... Almloef's Model
Max. no of cycles        MaxIter  .... 300

Convergence Tolerances:
Energy Change            TolE     ....  5.0000e-06 Eh
Max. Gradient            TolMAXG  ....  3.0000e-04 Eh/bohr
RMS Gradient             TolRMSG  ....  1.0000e-04 Eh/bohr
Max. Displacement        TolMAXD  ....  4.0000e-03 bohr
RMS Displacement         TolRMSD  ....  2.0000e-03 bohr
Strict Convergence                .... False

------------------------------------------------------------------------------
                        ORCA OPTIMIZATION COORDINATE SETUP
------------------------------------------------------------------------------

The optimization will be done in redundant internal coordinates (2022)
Making redundant internal coordinates   ...  (2022 redundants) done
Evaluating the initial hessian          ...  (Almloef) done
Evaluating the coordinates              ...  done
Calculating the B-matrix                .... done
Calculating the G-matrix                .... done
The number of degrees of freedom        ....  116

    -----------------------------------------------------------------
                    Redundant Internal Coordinates


    -----------------------------------------------------------------
         Definition                    Initial Value    Approx d2E/dq
    -----------------------------------------------------------------
      1. B(B   1,B   0)                  1.9604         0.103131   
      2. B(B   2,B   1)                  1.7396         0.232043   
      3. B(B   2,B   0)                  1.7401         0.231646   
      4. B(B   3,B   2)                  1.8554         0.151655   
      5. B(B   4,B   2)                  1.8997         0.128879   
      6. B(B   5,B   1)                  1.9326         0.114215   
      7. B(B   5,B   4)                  1.8832         0.136934   
      8. B(B   7,B   0)                  2.0840         0.065480   
      9. B(B   8,B   7)                  1.8050         0.182489   
     10. B(B   8,B   0)                  1.9495         0.107319   
     11. B(B   9,B   5)                  2.0383         0.077454   
     12. B(B  10,B   9)                  1.9652         0.101311   
     13. B(B  10,B   8)                  2.0522         0.073611   
     14. B(B  10,B   3)                  2.0713         0.068602   
     15. B(B  11,B   6)                  2.0691         0.069168   
     16. B(B  11,B  10)                  2.0064         0.087090   
     17. B(B  11,B   7)                  2.0994         0.061872   
     18. A(B   1,B   0,B   2)           55.6996         0.280993   
     19. A(B   1,B   0,B   7)           96.4683         0.233242   
     20. A(B   2,B   0,B   7)          120.0681         0.262234   
     21. A(B   1,B   0,B   8)          124.6753         0.250308   
     22. A(B   7,B   0,B   8)           53.0394         0.234547   
     23. A(B   2,B   0,B   8)           97.2104         0.282731   
     24. A(B   2,B   1,B   5)           91.0236         0.285557   
     25. A(B   0,B   1,B   2)           55.7221         0.281067   
     26. A(B   0,B   1,B   5)          122.5025         0.252598   
     27. A(B   1,B   2,B   3)          137.5071         0.298584   
     28. A(B   0,B   2,B   4)          138.8861         0.290926   
     29. A(B   3,B   2,B   4)           70.4065         0.272466   
     30. A(B   1,B   2,B   4)           91.6827         0.291005   
     31. A(B   0,B   2,B   1)           68.5784         0.319673   
     32. A(B   0,B   2,B   3)           99.6128         0.298503   
     33. A(B   2,B   3,B  10)          106.6438         0.248065   
     34. A(B   2,B   4,B   5)           87.8053         0.268274   
     35. A(B   1,B   5,B   4)           86.4394         0.263439   
     36. A(B   4,B   5,B   9)           66.0766         0.248759   
     37. A(B   1,B   5,B   9)          117.2907         0.242332   
     38. A(B   8,B   7,B  11)           93.5330         0.251038   
     39. A(B   0,B   7,B  11)          114.3433         0.217489   
     40. A(B   0,B   7,B   8)           59.6576         0.253130   
     41. A(B   7,B   8,B  10)           91.8159         0.257536   
     42. A(B   0,B   8,B  10)          110.7786         0.238455   
     43. A(B   0,B   8,B   7)           67.3029         0.272549   
     44. A(B   5,B   9,B  10)          117.3223         0.238227   
     45. A(B   8,B  10,B   9)          126.0295         0.236518   
     46. A(B   3,B  10,B   9)           89.9434         0.234184   
     47. A(B   3,B  10,B   8)           68.4885         0.224059   
     48. A(B   9,B  10,B  11)           65.5358         0.242241   
     49. A(B   8,B  10,B  11)           89.2756         0.231554   
     50. A(B   3,B  10,B  11)          128.0196         0.229298   
     51. A(B   6,B  11,B   7)           66.4739         0.219093   
     52. A(B   7,B  11,B  10)           85.0354         0.226057   
     53. A(B   6,B  11,B  10)          116.2786         0.229559   
     54. D(B   2,B   1,B   0,B   8)    -73.3113         0.010000   
     55. D(B   5,B   1,B   0,B   7)    -56.3303         0.010000   
     56. D(B   5,B   1,B   0,B   2)     65.8813         0.010000   
     57. D(B   5,B   1,B   0,B   8)     -7.4300         0.010000   
     58. D(B   2,B   1,B   0,B   7)   -122.2116         0.010000   
     59. D(B   4,B   2,B   0,B   1)    -66.3251         0.010000   
     60. D(B   3,B   2,B   1,B   0)     80.6359         0.010000   
     61. D(B   1,B   2,B   0,B   8)    127.4364         0.010000   
     62. D(B   3,B   2,B   0,B   8)    -10.0326         0.010000   
     63. D(B   3,B   2,B   0,B   7)    -61.1995         0.010000   
     64. D(B   3,B   2,B   1,B   5)    -49.0223         0.010000   
     65. D(B   0,B   2,B   1,B   5)   -129.6582         0.010000   
     66. D(B   1,B   2,B   0,B   7)     76.2695         0.010000   
     67. D(B   4,B   2,B   1,B   0)    142.9525         0.010000   
     68. D(B   3,B   2,B   0,B   1)   -137.4690         0.010000   
     69. D(B   4,B   2,B   1,B   5)     13.2943         0.010000   
     70. D(B  10,B   3,B   2,B   4)    -79.9322         0.010000   
     71. D(B  10,B   3,B   2,B   1)     -9.9560         0.010000   
     72. D(B  10,B   3,B   2,B   0)     58.7286         0.010000   
     73. D(B   5,B   4,B   2,B   3)    126.9269         0.010000   
     74. D(B   5,B   4,B   2,B   1)    -13.6576         0.010000   
     75. D(B   5,B   4,B   2,B   0)     44.8751         0.010000   
     76. D(B   9,B   5,B   4,B   2)   -109.7269         0.010000   
     77. D(B   9,B   5,B   1,B   0)     -1.6917         0.010000   
     78. D(B   4,B   5,B   1,B   2)    -13.4335         0.010000   
     79. D(B   4,B   5,B   1,B   0)    -62.3977         0.010000   
     80. D(B   1,B   5,B   4,B   2)     12.2902         0.010000   
     81. D(B   9,B   5,B   1,B   2)     47.2725         0.010000   
     82. D(B   8,B   7,B   0,B   2)     75.2778         0.010000   
     83. D(B   8,B   7,B   0,B   1)    129.1426         0.010000   
     84. D(B  11,B   7,B   0,B   1)     49.8885         0.010000   
     85. D(B  11,B   7,B   0,B   8)    -79.2541         0.010000   
     86. D(B  11,B   7,B   0,B   2)     -3.9763         0.010000   
     87. D(B  10,B   8,B   7,B  11)      4.4506         0.010000   
     88. D(B  10,B   8,B   7,B   0)   -111.8063         0.010000   
     89. D(B   0,B   8,B   7,B  11)    116.2569         0.010000   
     90. D(B  10,B   8,B   0,B   7)     82.9947         0.010000   
     91. D(B  10,B   8,B   0,B   2)    -39.4734         0.010000   
     92. D(B  10,B   8,B   0,B   1)     13.4286         0.010000   
     93. D(B   7,B   8,B   0,B   2)   -122.4682         0.010000   
     94. D(B   7,B   8,B   0,B   1)    -69.5661         0.010000   
     95. D(B  10,B   9,B   5,B   4)     74.8806         0.010000   
     96. D(B  10,B   9,B   5,B   1)      2.6588         0.010000   
     97. D(B  11,B  10,B   9,B   5)     74.5756         0.010000   
     98. D(B   8,B  10,B   9,B   5)      4.9461         0.010000   
     99. D(B   3,B  10,B   9,B   5)    -58.0444         0.010000   
    100. D(B  11,B  10,B   8,B   0)    -71.0158         0.010000   
    101. D(B   9,B  10,B   8,B   7)     53.9306         0.010000   
    102. D(B   9,B  10,B   8,B   0)    -12.4362         0.010000   
    103. D(B   3,B  10,B   8,B   7)    127.1933         0.010000   
    104. D(B   3,B  10,B   8,B   0)     60.8264         0.010000   
    105. D(B  11,B  10,B   3,B   2)      3.0621         0.010000   
    106. D(B   9,B  10,B   3,B   2)     61.2966         0.010000   
    107. D(B   8,B  10,B   3,B   2)    -67.9479         0.010000   
    108. D(B   7,B  11,B  10,B   3)    -57.6071         0.010000   
    109. D(B   6,B  11,B  10,B   9)    -66.0090         0.010000   
    110. D(B   6,B  11,B  10,B   8)     64.6852         0.010000   
    111. D(B   6,B  11,B  10,B   3)      3.0693         0.010000   
    112. D(B  10,B  11,B   7,B   8)     -4.5672         0.010000   
    113. D(B  10,B  11,B   7,B   0)     53.5904         0.010000   
    114. D(B   6,B  11,B   7,B   8)   -126.0679         0.010000   
    115. D(B   7,B  11,B  10,B   8)      4.0089         0.010000   
    116. D(B   6,B  11,B   7,B   0)    -67.9103         0.010000   
    -----------------------------------------------------------------

Number of atoms                         .... 12
Number of degrees of freedom            .... 116


         *************************************************************
         *                GEOMETRY OPTIMIZATION CYCLE   1            *
         *************************************************************
---------------------------------
CARTESIAN COORDINATES (ANGSTROEM)
---------------------------------
  B      0.018860   -1.434029   -1.318150
  B     -1.398479   -0.080350   -1.359974
  B     -1.218614   -1.272151   -0.105560
  B     -0.189813   -1.507705    1.420412
  B     -1.762968   -0.032819    1.227327
  B     -1.524054    1.332575   -0.047445
  B      0.061745    1.570591   -1.433494
  B      1.619183   -0.099779   -1.361487
  B      1.549734   -1.400112   -0.111525
  B     -0.138259    1.345555    1.447243
  B      1.262771   -0.031376    1.390330
  B      1.495340    1.446412    0.053306

----------------------------
CARTESIAN COORDINATES (A.U.)
----------------------------
  NO LB      ZA    FRAG     MASS         X           Y           Z
   0 B     5.0000    0    10.810    0.035639   -2.709923   -2.490943
   1 B     5.0000    0    10.810   -2.642741   -0.151840   -2.569979
   2 B     5.0000    0    10.810   -2.302846   -2.404018   -0.199480
   3 B     5.0000    0    10.810   -0.358695   -2.849149    2.684191
   4 B     5.0000    0    10.810   -3.331527   -0.062018    2.319312
   5 B     5.0000    0    10.810   -2.880044    2.518201   -0.089658
   6 B     5.0000    0    10.810    0.116680    2.967986   -2.708911
   7 B     5.0000    0    10.810    3.059813   -0.188555   -2.572838
   8 B     5.0000    0    10.810    2.928573   -2.645828   -0.210751
   9 B     5.0000    0    10.810   -0.261271    2.542730    2.734893
  10 B     5.0000    0    10.810    2.386291   -0.059293    2.627343
  11 B     5.0000    0    10.810    2.825784    2.733323    0.100734

--------------------------------
INTERNAL COORDINATES (ANGSTROEM)
--------------------------------
 B      0   0   0     0.000000000000     0.00000000     0.00000000
 B      1   0   0     1.960368070929     0.00000000     0.00000000
 B      2   1   0     1.739625122534    55.72208124     0.00000000
 B      3   2   1     1.855399777724   137.50707674    80.63592744
 B      3   2   1     1.899698853457    91.68272793   142.95252620
 B      5   3   2     1.883194876456    87.80525374   346.34238837
 B      6   5   3     2.119560980243   128.24285975   317.24270404
 B      1   2   3     2.084019398514    96.46831658   237.78839160
 B      8   1   2     1.805018899129    59.65764530   129.14257229
 B      6   5   3     2.038305090712    66.07664364   250.27306684
 B     10   6   5     1.965213017813   117.32230737    74.88064681
 B     11  10   6     2.006385098330    65.53580422    74.57563448

---------------------------
INTERNAL COORDINATES (A.U.)
---------------------------
 B      0   0   0     0.000000000000     0.00000000     0.00000000
 B      1   0   0     3.704558775738     0.00000000     0.00000000
 B      2   1   0     3.287415057279    55.72208124     0.00000000
 B      3   2   1     3.506197448837   137.50707674    80.63592744
 B      3   2   1     3.589910569958    91.68272793   142.95252620
 B      5   3   2     3.558722573306    87.80525374   346.34238837
 B      6   5   3     4.005389776806   128.24285975   317.24270404
 B      1   2   3     3.938225920972    96.46831658   237.78839160
 B      8   1   2     3.410991385906    59.65764530   129.14257229
 B      6   5   3     3.851838398822    66.07664364   250.27306684
 B     10   6   5     3.713714398483   117.32230737    74.88064681
 B     11  10   6     3.791518355024    65.53580422    74.57563448

---------------------
BASIS SET INFORMATION
---------------------
There are 1 groups of distinct atoms

 Group   1 Type B   : 7s4p1d contracted to 3s2p1d pattern {511/31/1}

Atom   0B    basis set group =>   1
Atom   1B    basis set group =>   1
Atom   2B    basis set group =>   1
Atom   3B    basis set group =>   1
Atom   4B    basis set group =>   1
Atom   5B    basis set group =>   1
Atom   6B    basis set group =>   1
Atom   7B    basis set group =>   1
Atom   8B    basis set group =>   1
Atom   9B    basis set group =>   1
Atom  10B    basis set group =>   1
Atom  11B    basis set group =>   1
---------------------------------
AUXILIARY/J BASIS SET INFORMATION
---------------------------------
There are 1 groups of distinct atoms

 Group   1 Type B   : 12s5p4d2f1g contracted to 6s4p3d1f1g pattern {711111/2111/211/2/1}

Atom   0B    basis set group =>   1
Atom   1B    basis set group =>   1
Atom   2B    basis set group =>   1
Atom   3B    basis set group =>   1
Atom   4B    basis set group =>   1
Atom   5B    basis set group =>   1
Atom   6B    basis set group =>   1
Atom   7B    basis set group =>   1
Atom   8B    basis set group =>   1
Atom   9B    basis set group =>   1
Atom  10B    basis set group =>   1
Atom  11B    basis set group =>   1


           ************************************************************
           *        Program running with 8 parallel MPI-processes     *
           *              working on a common directory               *
           ************************************************************
------------------------------------------------------------------------------
                             ORCA STARTUP CALCULATIONS
                           -- RI-GTO INTEGRALS CHOSEN --
------------------------------------------------------------------------------
------------------------------------------------------------------------------
                   ___                                                        
                  /   \      - P O W E R E D   B Y -                         
                 /     \                                                     
                 |  |  |   _    _      __       _____    __    __             
                 |  |  |  | |  | |    /  \     |  _  \  |  |  /  |          
                  \  \/   | |  | |   /    \    | | | |  |  | /  /          
                 / \  \   | |__| |  /  /\  \   | |_| |  |  |/  /          
                |  |  |   |  __  | /  /__\  \  |    /   |      \           
                |  |  |   | |  | | |   __   |  |    \   |  |\   \          
                \     /   | |  | | |  |  |  |  | |\  \  |  | \   \       
                 \___/    |_|  |_| |__|  |__|  |_| \__\ |__|  \__/        
                                                                              
                      - O R C A' S   B I G   F R I E N D -                    
                                      &                                       
                       - I N T E G R A L  F E E D E R -                       
                                                                              
 v1 FN, 2020, v2 2021, v3 2022-2024                                           
------------------------------------------------------------------------------


----------------------
SHARK INTEGRAL PACKAGE
----------------------

Number of atoms                             ...     12
Number of basis functions                   ...    168
Number of shells                            ...     72
Maximum angular momentum                    ...      2
Integral batch strategy                     ... SHARK/LIBINT Hybrid
RI-J (if used) integral strategy            ... SPLIT-RIJ (Revised 2003 algorithm where possible)
Printlevel                                  ...      1
Contraction scheme used                     ... SEGMENTED contraction
Prescreening option                         ... SCHWARTZ
   Thresh                                   ... 2.500e-11
   Tcut                                     ... 2.500e-12
   Tpresel                                  ... 2.500e-12 
Coulomb Range Separation                    ... NOT USED
Exchange Range Separation                   ... NOT USED
Multipole approximations                    ... NOT USED
Finite Nucleus Model                        ... NOT USED
CABS basis                                  ... NOT available
Auxiliary Coulomb fitting basis             ... AVAILABLE
   # of basis functions in Aux-J            ...    588
   # of shells in Aux-J                     ...    180
   Maximum angular momentum in Aux-J        ...      4
Auxiliary J/K fitting basis                 ... NOT available
Auxiliary Correlation fitting basis         ... NOT available
Auxiliary 'external' fitting basis          ... NOT available

Checking pre-screening integrals            ... done (  0.0 sec) Dimension = 72
   => SHARK Basis and OBASIS are compatible. Storing Pre-screening
Shell pair information
Shell pair cut-off parameter TPreSel        ...   2.5e-12
Total number of shell pairs                 ...      2628
Shell pairs after pre-screening             ...      2586
Total number of primitive shell pairs       ...     10596
Primitive shell pairs kept                  ...      7828
          la=0 lb=0:    624 shell pairs
          la=1 lb=0:    864 shell pairs
          la=1 lb=1:    300 shell pairs
          la=2 lb=0:    432 shell pairs
          la=2 lb=1:    288 shell pairs
          la=2 lb=2:     78 shell pairs

Checking whether 4 symmetric matrices of dimension 168 fit in memory
:Max Core in MB      =   2500.00
 MB in use           =      6.90
 MB left             =   2493.10
 MB needed           =      0.43
 Data fit in memory  = YES
Calculating RI/J V-Matrix + Cholesky decomp.... done (  0.0 sec)
Calculating Nuclear repulsion               ... done (  0.0 sec) ENN=    324.633824866002 Eh

Diagonalization of the overlap matrix:
Smallest eigenvalue                        ... 2.179e-04
Time for diagonalization                   ...    0.004 sec
Threshold for overlap eigenvalues          ... 1.000e-07
Number of eigenvalues below threshold      ... 0
Time for construction of square roots      ...    0.002 sec
Total time needed                          ...    0.008 sec

-------------------
DFT GRID GENERATION
-------------------

General Integration Accuracy     IntAcc      ... 4.388
Radial Grid Type                 RadialGrid  ... OptM3 with GC (2021)
Angular Grid (max. ang.)         AngularGrid ... 4 (Lebedev-302)
Angular grid pruning method      GridPruning ... 4 (adaptive)
Weight generation scheme         WeightScheme... mBecke (2022)
Basis function cutoff            BFCut       ... 1.0000e-11
Integration weight cutoff        WCut        ... 1.0000e-14
Partially contracted basis set               ... off
Rotationally invariant grid construction     ... off
Angular grids for H and He will be reduced by one unit

Total number of grid points                  ...    71243
Total number of batches                      ...     1118
Average number of points per batch           ...       63
Average number of grid points per atom       ...     5937
Grids setup in   0.7 sec
Initializing property integral containers    ... done (  0.0 sec)

SHARK setup successfully completed in   0.8 seconds

Maximum memory used throughout the entire STARTUP-calculation: 19.9 MB


           ************************************************************
           *        Program running with 8 parallel MPI-processes     *
           *              working on a common directory               *
           ************************************************************
-------------------------------------------------------------------------------
                                 ORCA GUESS
                   Start orbitals & Density for SCF / CASSCF
-------------------------------------------------------------------------------

------------
SCF SETTINGS
------------
Hamiltonian:
 Density Functional     Method          .... DFT(GTOs)
 Exchange Functional    Exchange        .... B88
   X-Alpha parameter    XAlpha          ....  0.666667
   Becke's b parameter  XBeta           ....  0.004200
 Correlation Functional Correlation     .... P86
 LDA part of GGA corr.  LDAOpt          .... PW91-LDA
 Gradients option       PostSCFGGA      .... off
   NL short-range parameter             ....  4.400000
 RI-approximation to the Coulomb term is turned on
   Number of AuxJ basis functions       .... 588


General Settings:
 Integral files         IntName         .... cuboctahedron_nn2.00_perturb0
 Hartree-Fock type      HFTyp           .... RHF
 Total Charge           Charge          ....    0
 Multiplicity           Mult            ....    1
 Number of Electrons    NEL             ....   60
 Basis Dimension        Dim             ....  168
 Nuclear Repulsion      ENuc            ....    324.6338248660 Eh

Convergence Acceleration:
 AO-DIIS                CNVDIIS         .... on
   Start iteration      DIISMaxIt       ....     0
   Startup error        DIISStart       ....  0.200000
   # of expansion vecs  DIISMaxEq       ....     5
   Bias factor          DIISBfac        ....   1.050
   Max. coefficient     DIISMaxC        ....  10.000
 MO-DIIS                CNVKDIIS        .... off
 Trust-Rad. Augm. Hess. CNVTRAH         .... auto
   Auto Start mean grad. ratio tolernc. ....  1.125000
   Auto Start start iteration           ....    50
   Auto Start num. interpolation iter.  ....    10
   Max. Number of Micro iterations      ....    24
   Max. Number of Macro iterations      .... Maxiter - #DIIS iter
   Number of Davidson start vectors     ....     2
   Converg. threshold    (grad. norm)   ....   1.000e-05
   Grad. Scal. Fac. for Micro threshold ....   0.100
   Minimum threshold for Micro iter.    ....   1.000e-02
   NR start threshold (gradient norm)   ....   1.000e-04
   Initial trust radius                 ....   0.400
   Minimum AH scaling param. (alpha)    ....   1.000
   Maximum AH scaling param. (alpha)    .... 1000.000
   Quad. conv. algorithm                .... NR
   White noise on init. David. guess    .... on
   Maximum white noise                  ....   0.010
   Pseudo random numbers                .... off
   Inactive MOs                         .... canonical
   Orbital update algorithm             .... Taylor
   Preconditioner                       .... Diag
   Full preconditioner red. dimension   ....   250
 SOSCF                 CNVSOSCF           .... on
   Start iteration     SOSCFMaxIt         ....   150
   Startup grad/error  SOSCFStart         ....  0.001000
   Hessian update      SOSCFHessUp        .... L-BFGS
   Autom. constraints  SOSCFAutoConstrain .... off
 Level Shifting         CNVShift        .... on
   Level shift para.    LevelShift      ....    0.2500
   Turn off err/grad.   ShiftErr        ....    0.0000
 Zerner damping         CNVZerner       .... off
 Static damping         CNVDamp         .... on
   Fraction old density DampFac         ....    0.8500
   Max. Damping (<1)    DampMax         ....    0.9800
   Min. Damping (>=0)   DampMin         ....    0.0000
   Turn off err/grad.   DampErr         ....    0.0300

SCF Procedure:
 Maximum # iterations   MaxIter         ....   125
 SCF integral mode      SCFMode         .... Direct
   Integral package                     .... SHARK and LIBINT hybrid scheme
 Reset frequency        DirectResetFreq ....    20
 Integral Threshold     Thresh          ....  2.500e-11 Eh
 Primitive CutOff       TCut            ....  2.500e-12 Eh

Convergence Tolerance:
 Convergence Check Mode ConvCheckMode   .... Total+1el-Energy
 Convergence forced     ConvForced      .... 0
 Energy Change          TolE            ....  1.000e-08 Eh
 1-El. energy change                    ....  1.000e-05 Eh
 Orbital Gradient       TolG            ....  1.000e-05
 Orbital Rotation angle TolX            ....  1.000e-05
 DIIS Error             TolErr          ....  5.000e-07

------------------------------
INITIAL GUESS: MODEL POTENTIAL
------------------------------
Loading Hartree-Fock densities                     ... done
Calculating cut-offs                               ... done
Initializing the effective Hamiltonian             ... done
Setting up the integral package (SHARK)            ... done
Starting the Coulomb interaction                   ... done (   0.0 sec)
Making the grid                                    ... done (   0.2 sec)
Mapping shells                                     ... done
Starting the XC term evaluation                    ... done (   0.1 sec)
  promolecular density results
     # of electrons  =     60.000426234
     EX              =    -45.237761524
     EC              =     -1.946183655
     EX+EC           =    -47.183945179
Transforming the Hamiltonian                       ... done (   0.0 sec)
Diagonalizing the Hamiltonian                      ... done (   0.0 sec)
Back transforming the eigenvectors                 ... done (   0.0 sec)
Now organizing SCF variables                       ... done
                      ------------------
                      INITIAL GUESS DONE (   0.3 sec)
                      ------------------
             **** ENERGY FILE WAS UPDATED (cuboctahedron_nn2.00_perturb0.en.tmp) ****
Finished Guess after   0.8 sec
Maximum memory used throughout the entire GUESS-calculation: 9.7 MB


           ************************************************************
           *        Program running with 8 parallel MPI-processes     *
           *              working on a common directory               *
           ************************************************************

-------------------------------------------------------------------------------------------
                                      ORCA LEAN-SCF
                              memory conserving SCF solver
-------------------------------------------------------------------------------------------

----------------------------------------D-I-I-S--------------------------------------------
Iteration    Energy (Eh)           Delta-E    RMSDP     MaxDP     DIISErr   Damp  Time(sec)
-------------------------------------------------------------------------------------------
               ***  Starting incremental Fock matrix formation  ***
    1    -296.8609458849805947     0.00e+00  1.37e-02  2.33e-01  1.21e-01  0.850   0.4
Warning: op=0 Small HOMO/LUMO gap (  -0.052) - skipping pre-diagonalization
         Will do a full diagonalization
    2    -296.9421523404487857    -8.12e-02  1.61e-02  2.68e-01  8.25e-02  0.850   0.3
                               ***Turning on AO-DIIS***
    3    -296.9807791540796984    -3.86e-02  1.12e-02  1.91e-01  3.96e-02  0.850   0.8
    4    -296.9976544357246553    -1.69e-02  7.03e-03  1.15e-01  1.84e-02  0.850   0.4
    5    -297.0108190909799646    -1.32e-02  2.90e-02  4.28e-01  1.13e-02  0.000   0.4
    6    -297.0654289741100342    -5.46e-02  7.70e-03  1.23e-01  2.35e-02  0.000   0.3
    7    -297.0748512006400119    -9.42e-03  3.71e-03  5.33e-02  1.21e-02  0.000   0.3
    8    -297.0772463535623160    -2.40e-03  1.98e-03  2.58e-02  5.22e-03  0.000   0.3
    9    -297.0777881720170512    -5.42e-04  1.19e-03  1.07e-02  5.29e-03  0.000   0.3
   10    -297.0783436820115071    -5.56e-04  7.98e-04  4.51e-03  1.59e-03  0.000   0.3
                              *** Initializing SOSCF ***
---------------------------------------S-O-S-C-F--------------------------------------
Iteration    Energy (Eh)           Delta-E    RMSDP     MaxDP     MaxGrad    Time(sec)
--------------------------------------------------------------------------------------
   11    -297.0785294972700399    -1.86e-04  5.70e-04  3.38e-03  9.57e-04     0.3
               *** Restarting incremental Fock matrix formation ***
   12    -297.0786686574286364    -1.39e-04  1.14e-03  4.51e-03  1.29e-03     0.4
   13    -297.0788512710211648    -1.83e-04  5.87e-03  2.64e-02  1.31e-03     0.3
   14    -297.0795166840192110    -6.65e-04  5.89e-03  1.93e-02  1.93e-03     0.4
   15    -297.0795368457998507    -2.02e-05  1.82e-03  8.26e-03  4.83e-03     0.3
   16    -297.0798956039104155    -3.59e-04  3.38e-03  3.12e-02  3.05e-03     0.3
   17    -297.0804469844765094    -5.51e-04  4.33e-03  2.19e-02  2.48e-03     0.4
   18    -297.0810967655369836    -6.50e-04  7.02e-03  2.73e-02  2.18e-03     0.3
   19    -297.0819220378601244    -8.25e-04  6.17e-03  2.44e-02  2.54e-03     0.3
   20    -297.0819032122469139     1.88e-05  4.46e-03  2.56e-02  8.97e-03     0.3
               *** Scaled step length from 0.262009 to 0.200000 ***
   21    -297.0839783249417110    -2.08e-03  8.00e-03  3.76e-02  3.07e-03     0.3
   22    -297.0842723567090502    -2.94e-04  3.36e-03  1.52e-02  4.89e-03     0.3
   23    -297.0856450015391488    -1.37e-03  3.90e-03  2.71e-02  1.92e-03     0.3
   24    -297.0862957261879842    -6.51e-04  2.79e-03  1.07e-02  2.09e-03     0.3
   25    -297.0867730604299481    -4.77e-04  2.91e-03  2.30e-02  1.16e-03     0.3
   26    -297.0869844641544546    -2.11e-04  1.21e-03  5.70e-03  1.56e-03     0.3
   27    -297.0871073985718454    -1.23e-04  7.87e-04  3.58e-03  7.60e-04     0.4
   28    -297.0871631413746741    -5.57e-05  6.20e-04  2.97e-03  4.36e-04     0.3
   29    -297.0871914973811840    -2.84e-05  4.17e-04  1.94e-03  4.30e-04     0.3
   30    -297.0872030483280355    -1.16e-05  2.50e-04  1.08e-03  1.37e-04     0.3
   31    -297.0872051475938065    -2.10e-06  1.37e-04  1.37e-03  1.81e-04     0.4
               *** Restarting incremental Fock matrix formation ***
   32    -297.0872065103350792    -1.36e-06  8.23e-05  9.23e-04  5.73e-05     0.6
   33    -297.0872069177507342    -4.07e-07  6.79e-05  4.27e-04  4.25e-05     0.3
   34    -297.0872071591396093    -2.41e-07  6.34e-05  2.27e-04  4.34e-05     0.3
   35    -297.0872073060432399    -1.47e-07  4.01e-05  1.41e-04  2.25e-05     0.3
   36    -297.0872073947124932    -8.87e-08  3.01e-05  1.80e-04  1.74e-05     0.4
   37    -297.0872074448337230    -5.01e-08  1.88e-05  8.06e-05  1.70e-05     0.4
   38    -297.0872074652209562    -2.04e-08  1.26e-05  5.38e-05  7.88e-06     0.3
   39    -297.0872074741203619    -8.90e-09  8.72e-06  3.89e-05  4.73e-06     0.3
                 **** Energy Check signals convergence ****

               *****************************************************
               *                     SUCCESS                       *
               *           SCF CONVERGED AFTER  39 CYCLES          *
               *****************************************************

             **** ENERGY FILE WAS UPDATED (cuboctahedron_nn2.00_perturb0.en.tmp) ****

----------------
TOTAL SCF ENERGY
----------------

Total Energy       :       -297.08720747782189 Eh           -8084.15391 eV

Components:
Nuclear Repulsion  :        324.63382486600182 Eh            8833.73547 eV
Electronic Energy  :       -621.72103234382371 Eh          -16917.88938 eV
One Electron Energy:      -1037.21616960845063 Eh          -28224.08686 eV
Two Electron Energy:        415.49513726462686 Eh           11306.19748 eV

Virial components:
Potential Energy   :       -588.65427312815495 Eh          -16018.09712 eV
Kinetic Energy     :        291.56706565033312 Eh            7933.94321 eV
Virial Ratio       :          2.01893266585228

DFT components:
N(Alpha)           :       29.999958503713 electrons
N(Beta)            :       29.999958503713 electrons
N(Total)           :       59.999917007425 electrons
E(X)               :      -45.473156145502 Eh       
E(C)               :       -1.976199730606 Eh       
E(XC)              :      -47.449355876108 Eh       

---------------
SCF CONVERGENCE
---------------

  Last Energy change         ...    8.8994e-09  Tolerance :   1.0000e-08
  Last MAX-Density change    ...    3.8929e-05  Tolerance :   1.0000e-07
  Last RMS-Density change    ...    8.7235e-06  Tolerance :   5.0000e-09
  Last DIIS Error            ...    9.5696e-04  Tolerance :   5.0000e-07
  Last Orbital Gradient      ...    4.7259e-06  Tolerance :   1.0000e-05
  Last Orbital Rotation      ...    1.2511e-04  Tolerance :   1.0000e-05


----------------
ORBITAL ENERGIES
----------------

  NO   OCC          E(Eh)            E(eV) 
   0   2.0000      -6.648313      -180.9098 
   1   2.0000      -6.643301      -180.7734 
   2   2.0000      -6.636900      -180.5992 
   3   2.0000      -6.630438      -180.4234 
   4   2.0000      -6.628557      -180.3722 
   5   2.0000      -6.628485      -180.3703 
   6   2.0000      -6.628097      -180.3597 
   7   2.0000      -6.627321      -180.3386 
   8   2.0000      -6.622742      -180.2140 
   9   2.0000      -6.621546      -180.1814 
  10   2.0000      -6.619354      -180.1218 
  11   2.0000      -6.598794      -179.5623 
  12   2.0000      -0.634120       -17.2553 
  13   2.0000      -0.541929       -14.7466 
  14   2.0000      -0.536053       -14.5867 
  15   2.0000      -0.508422       -13.8349 
  16   2.0000      -0.439822       -11.9682 
  17   2.0000      -0.415672       -11.3110 
  18   2.0000      -0.394903       -10.7459 
  19   2.0000      -0.385326       -10.4852 
  20   2.0000      -0.345298        -9.3960 
  21   2.0000      -0.328323        -8.9341 
  22   2.0000      -0.293571        -7.9885 
  23   2.0000      -0.267638        -7.2828 
  24   2.0000      -0.262322        -7.1381 
  25   2.0000      -0.241969        -6.5843 
  26   2.0000      -0.235419        -6.4061 
  27   2.0000      -0.221467        -6.0264 
  28   2.0000      -0.216814        -5.8998 
  29   2.0000      -0.212139        -5.7726 
  30   0.0000      -0.211857        -5.7649 
  31   0.0000      -0.196380        -5.3438 
  32   0.0000      -0.172140        -4.6842 
  33   0.0000      -0.164236        -4.4691 
  34   0.0000      -0.144815        -3.9406 
  35   0.0000      -0.140896        -3.8340 
  36   0.0000      -0.132264        -3.5991 
  37   0.0000      -0.115463        -3.1419 
  38   0.0000      -0.107003        -2.9117 
  39   0.0000      -0.103238        -2.8093 
  40   0.0000      -0.047984        -1.3057 
*Only the first 10 virtual orbitals were printed.

                    ********************************
                    * MULLIKEN POPULATION ANALYSIS *
                    ********************************

-----------------------
MULLIKEN ATOMIC CHARGES
-----------------------
   0 B :   -0.030435
   1 B :    0.067770
   2 B :   -0.126078
   3 B :    0.084072
   4 B :    0.069557
   5 B :   -0.007058
   6 B :    0.007244
   7 B :   -0.082786
   8 B :    0.092689
   9 B :   -0.028859
  10 B :   -0.107358
  11 B :    0.061242
Sum of atomic charges:    0.0000000

--------------------------------
MULLIKEN REDUCED ORBITAL CHARGES
--------------------------------
  0 B s       :     3.340512  s :     3.340512
      pz      :     0.517705  p :     1.649905
      px      :     0.657432
      py      :     0.474768
      dz2     :     0.008345  d :     0.040018
      dxz     :     0.009824
      dyz     :     0.004016
      dx2y2   :     0.008553
      dxy     :     0.009279

  1 B s       :     3.329892  s :     3.329892
      pz      :     0.364942  p :     1.563619
      px      :     0.569219
      py      :     0.629458
      dz2     :     0.009634  d :     0.038719
      dxz     :     0.005641
      dyz     :     0.008807
      dx2y2   :     0.008452
      dxy     :     0.006185

  2 B s       :     2.972917  s :     2.972917
      pz      :     0.669950  p :     2.104526
      px      :     0.736964
      py      :     0.697612
      dz2     :     0.014701  d :     0.048635
      dxz     :     0.008816
      dyz     :     0.010035
      dx2y2   :     0.008139
      dxy     :     0.006945

  3 B s       :     3.516396  s :     3.516396
      pz      :     0.429351  p :     1.366250
      px      :     0.545616
      py      :     0.391282
      dz2     :     0.008102  d :     0.033282
      dxz     :     0.007916
      dyz     :     0.003092
      dx2y2   :     0.006561
      dxy     :     0.007611

  4 B s       :     3.427265  s :     3.427265
      pz      :     0.482832  p :     1.467563
      px      :     0.430163
      py      :     0.554569
      dz2     :     0.008702  d :     0.035615
      dxz     :     0.005523
      dyz     :     0.007958
      dx2y2   :     0.007021
      dxy     :     0.006411

  5 B s       :     3.342993  s :     3.342993
      pz      :     0.612709  p :     1.626883
      px      :     0.521580
      py      :     0.492594
      dz2     :     0.009503  d :     0.037182
      dxz     :     0.006540
      dyz     :     0.008646
      dx2y2   :     0.007183
      dxy     :     0.005310

  6 B s       :     3.562154  s :     3.562154
      pz      :     0.467066  p :     1.402441
      px      :     0.534341
      py      :     0.401033
      dz2     :     0.005926  d :     0.028161
      dxz     :     0.007247
      dyz     :     0.002137
      dx2y2   :     0.005390
      dxy     :     0.007462

  7 B s       :     3.468590  s :     3.468590
      pz      :     0.520342  p :     1.581780
      px      :     0.539592
      py      :     0.521847
      dz2     :     0.007650  d :     0.032416
      dxz     :     0.004846
      dyz     :     0.007402
      dx2y2   :     0.006423
      dxy     :     0.006095

  8 B s       :     3.389218  s :     3.389218
      pz      :     0.577168  p :     1.482873
      px      :     0.508984
      py      :     0.396721
      dz2     :     0.008634  d :     0.035219
      dxz     :     0.007084
      dyz     :     0.007451
      dx2y2   :     0.007226
      dxy     :     0.004825

  9 B s       :     3.526982  s :     3.526982
      pz      :     0.447917  p :     1.469258
      px      :     0.545451
      py      :     0.475890
      dz2     :     0.006039  d :     0.032618
      dxz     :     0.008092
      dyz     :     0.002580
      dx2y2   :     0.007349
      dxy     :     0.008558

 10 B s       :     3.362989  s :     3.362989
      pz      :     0.494295  p :     1.711043
      px      :     0.629032
      py      :     0.587716
      dz2     :     0.007007  d :     0.033326
      dxz     :     0.003939
      dyz     :     0.007565
      dx2y2   :     0.007884
      dxy     :     0.006932

 11 B s       :     3.495826  s :     3.495826
      pz      :     0.550948  p :     1.412506
      px      :     0.499937
      py      :     0.361622
      dz2     :     0.007149  d :     0.030426
      dxz     :     0.006436
      dyz     :     0.007076
      dx2y2   :     0.006158
      dxy     :     0.003607



                     *******************************
                     * LOEWDIN POPULATION ANALYSIS *
                     *******************************

----------------------
LOEWDIN ATOMIC CHARGES
----------------------
   0 B :    0.033424
   1 B :   -0.004493
   2 B :   -0.113939
   3 B :    0.077649
   4 B :   -0.000031
   5 B :   -0.021222
   6 B :    0.069601
   7 B :   -0.021267
   8 B :   -0.026877
   9 B :    0.043558
  10 B :   -0.021838
  11 B :   -0.014564

-------------------------------
LOEWDIN REDUCED ORBITAL CHARGES
-------------------------------
  0 B s       :     2.899655  s :     2.899655
      pz      :     0.662298  p :     1.968929
      px      :     0.739843
      py      :     0.566788
      dz2     :     0.016241  d :     0.097992
      dxz     :     0.029920
      dyz     :     0.007096
      dx2y2   :     0.018212
      dxy     :     0.026523

  1 B s       :     2.922196  s :     2.922196
      pz      :     0.589961  p :     1.990910
      px      :     0.661955
      py      :     0.738994
      dz2     :     0.018751  d :     0.091388
      dxz     :     0.009538
      dyz     :     0.027522
      dx2y2   :     0.017558
      dxy     :     0.018019

  2 B s       :     2.787139  s :     2.787139
      pz      :     0.819663  p :     2.207463
      px      :     0.732871
      py      :     0.654930
      dz2     :     0.030693  d :     0.119337
      dxz     :     0.028285
      dyz     :     0.031092
      dx2y2   :     0.017255
      dxy     :     0.012011

  3 B s       :     3.074866  s :     3.074866
      pz      :     0.591596  p :     1.774500
      px      :     0.644805
      py      :     0.538098
      dz2     :     0.016091  d :     0.072985
      dxz     :     0.020044
      dyz     :     0.006115
      dx2y2   :     0.010564
      dxy     :     0.020172

  4 B s       :     2.999049  s :     2.999049
      pz      :     0.670149  p :     1.920549
      px      :     0.583572
      py      :     0.666828
      dz2     :     0.014977  d :     0.080432
      dxz     :     0.010841
      dyz     :     0.024671
      dx2y2   :     0.012986
      dxy     :     0.016957

  5 B s       :     2.965497  s :     2.965497
      pz      :     0.739802  p :     1.970821
      px      :     0.625633
      py      :     0.605387
      dz2     :     0.016466  d :     0.084904
      dxz     :     0.018483
      dyz     :     0.026288
      dx2y2   :     0.015596
      dxy     :     0.008070

  6 B s       :     3.155562  s :     3.155562
      pz      :     0.583193  p :     1.714886
      px      :     0.642423
      py      :     0.489269
      dz2     :     0.010170  d :     0.059950
      dxz     :     0.020089
      dyz     :     0.002930
      dx2y2   :     0.009700
      dxy     :     0.017061

  7 B s       :     3.025781  s :     3.025781
      pz      :     0.643916  p :     1.923247
      px      :     0.629957
      py      :     0.649373
      dz2     :     0.013881  d :     0.072239
      dxz     :     0.007045
      dyz     :     0.023488
      dx2y2   :     0.012832
      dxy     :     0.014993

  8 B s       :     2.997313  s :     2.997313
      pz      :     0.709857  p :     1.949935
      px      :     0.613614
      py      :     0.626464
      dz2     :     0.014786  d :     0.079629
      dxz     :     0.018175
      dyz     :     0.023419
      dx2y2   :     0.015409
      dxy     :     0.007840

  9 B s       :     3.070215  s :     3.070215
      pz      :     0.561820  p :     1.812919
      px      :     0.657426
      py      :     0.593673
      dz2     :     0.011748  d :     0.073308
      dxz     :     0.021736
      dyz     :     0.003843
      dx2y2   :     0.012609
      dxy     :     0.023373

 10 B s       :     2.981910  s :     2.981910
      pz      :     0.534811  p :     1.963681
      px      :     0.705093
      py      :     0.723777
      dz2     :     0.013833  d :     0.076247
      dxz     :     0.005763
      dyz     :     0.021875
      dx2y2   :     0.014277
      dxy     :     0.020498

 11 B s       :     3.082951  s :     3.082951
      pz      :     0.675876  p :     1.864901
      px      :     0.639901
      py      :     0.549125
      dz2     :     0.011159  d :     0.066712
      dxz     :     0.017593
      dyz     :     0.019622
      dx2y2   :     0.013177
      dxy     :     0.005161



                      *****************************
                      * MAYER POPULATION ANALYSIS *
                      *****************************

  NA   - Mulliken gross atomic population
  ZA   - Total nuclear charge
  QA   - Mulliken gross atomic charge
  VA   - Mayer's total valence
  BVA  - Mayer's bonded valence
  FA   - Mayer's free valence

  ATOM       NA         ZA         QA         VA         BVA        FA
  0 B      5.0304     5.0000    -0.0304     3.2580     3.2580     0.0000
  1 B      4.9322     5.0000     0.0678     2.9681     2.9681     0.0000
  2 B      5.1261     5.0000    -0.1261     3.4845     3.4845     0.0000
  3 B      4.9159     5.0000     0.0841     2.7860     2.7860    -0.0000
  4 B      4.9304     5.0000     0.0696     2.8486     2.8486     0.0000
  5 B      5.0071     5.0000    -0.0071     3.0610     3.0610    -0.0000
  6 B      4.9928     5.0000     0.0072     2.7565     2.7565     0.0000
  7 B      5.0828     5.0000    -0.0828     3.0275     3.0275     0.0000
  8 B      4.9073     5.0000     0.0927     2.8000     2.8000     0.0000
  9 B      5.0289     5.0000    -0.0289     2.8485     2.8485     0.0000
 10 B      5.1074     5.0000    -0.1074     3.0957     3.0957    -0.0000
 11 B      4.9388     5.0000     0.0612     2.6628     2.6628     0.0000

  Mayer bond orders larger than 0.100000
B(  0-B ,  1-B ) :   0.5036 B(  0-B ,  2-B ) :   0.7241 B(  0-B ,  3-B ) :   0.1826 
B(  0-B ,  4-B ) :   0.1155 B(  0-B ,  5-B ) :   0.1371 B(  0-B ,  6-B ) :   0.1661 
B(  0-B ,  7-B ) :   0.5295 B(  0-B ,  8-B ) :   0.5061 B(  0-B ,  9-B ) :   0.1152 
B(  0-B , 10-B ) :   0.1437 B(  0-B , 11-B ) :   0.1344 B(  1-B ,  2-B ) :   0.6512 
B(  1-B ,  3-B ) :   0.1896 B(  1-B ,  4-B ) :   0.3087 B(  1-B ,  5-B ) :   0.5773 
B(  1-B ,  6-B ) :   0.3802 B(  1-B ,  9-B ) :   0.1568 B(  2-B ,  3-B ) :   0.5721 
B(  2-B ,  4-B ) :   0.6022 B(  2-B ,  5-B ) :   0.2722 B(  2-B ,  6-B ) :   0.1161 
B(  2-B ,  7-B ) :   0.1104 B(  2-B ,  9-B ) :   0.1209 B(  2-B , 10-B ) :   0.1563 
B(  3-B ,  4-B ) :   0.4007 B(  3-B ,  6-B ) :   0.1761 B(  3-B ,  8-B ) :   0.2724 
B(  3-B ,  9-B ) :   0.1951 B(  3-B , 10-B ) :   0.5294 B(  3-B , 11-B ) :   0.1228 
B(  4-B ,  5-B ) :   0.5865 B(  4-B ,  7-B ) :   0.2179 B(  4-B ,  9-B ) :   0.4048 
B(  5-B ,  6-B ) :   0.4999 B(  5-B ,  8-B ) :   0.1361 B(  5-B ,  9-B ) :   0.5234 
B(  6-B ,  7-B ) :   0.4148 B(  6-B ,  8-B ) :   0.1051 B(  6-B ,  9-B ) :   0.1789 
B(  6-B , 10-B ) :   0.1477 B(  6-B , 11-B ) :   0.4898 B(  7-B ,  8-B ) :   0.6671 
B(  7-B , 10-B ) :   0.2663 B(  7-B , 11-B ) :   0.4958 B(  8-B ,  9-B ) :   0.1456 
B(  8-B , 10-B ) :   0.5551 B(  8-B , 11-B ) :   0.2833 B(  9-B , 10-B ) :   0.5697 
B(  9-B , 11-B ) :   0.3595 B( 10-B , 11-B ) :   0.5344 

-------
TIMINGS
-------

Total SCF time: 0 days 0 hours 0 min 15 sec 

Total time                  ....      15.432 sec
Sum of individual times     ....      14.533 sec  ( 94.2%)

SCF preparation             ....       0.467 sec  (  3.0%)
Fock matrix formation       ....      12.331 sec  ( 79.9%)
  Startup                   ....       0.034 sec  (  0.3% of F)
  Split-RI-J                ....       3.965 sec  ( 32.2% of F)
  XC integration            ....       8.286 sec  ( 67.2% of F)
    XC Preparation          ....       0.000 sec  (  0.0% of XC)
    Basis function eval.    ....       1.818 sec  ( 21.9% of XC)
    Density eval.           ....       1.380 sec  ( 16.7% of XC)
    XC-Functional eval.     ....       0.218 sec  (  2.6% of XC)
    XC-Potential eval.      ....       1.729 sec  ( 20.9% of XC)
Diagonalization             ....       0.000 sec  (  0.0%)
Density matrix formation    ....       0.238 sec  (  1.5%)
Total Energy calculation    ....       0.149 sec  (  1.0%)
Population analysis         ....       0.069 sec  (  0.4%)
Orbital Transformation      ....       0.221 sec  (  1.4%)
Orbital Orthonormalization  ....       0.000 sec  (  0.0%)
DIIS solution               ....       0.307 sec  (  2.0%)
SOSCF solution              ....       0.750 sec  (  4.9%)
Finished LeanSCF after  15.5 sec

Maximum memory used throughout the entire LEANSCF-calculation: 10.2 MB


-------------------------------------------------------------------------------
                          DFT DISPERSION CORRECTION                            
                                                                               
                              DFTD3 V3.1  Rev 1                                
                          USING Becke-Johnson damping                          
-------------------------------------------------------------------------------
The BP86 functional is recognized
Active option DFTDOPT                   ...         4   

molecular C6(AA) [au] = 6664.674834 


            DFT-D V3
 parameters
 s6 scaling factor         :     1.0000 
 a1 scaling factor         :     0.3946 
 s8 scaling factor         :     3.2822 
 a2 scaling factor         :     4.8516 
 ad hoc parameters k1-k3   :    16.0000     1.3333    -4.0000 

 Edisp/kcal,au: -33.873905030669  -0.053981497997 
 E6   /kcal   :  -9.629797426 
 E8   /kcal   : -24.244107604 
 % E8         :  71.571634809 

-------------------------   ----------------
Dispersion correction           -0.053981498
-------------------------   ----------------


-------------------------   --------------------
FINAL SINGLE POINT ENERGY      -297.141188975819
-------------------------   --------------------



           ************************************************************
           *        Program running with 8 parallel MPI-processes     *
           *              working on a common directory               *
           ************************************************************
------------------------------------------------------------------------------
                         ORCA SCF GRADIENT CALCULATION
------------------------------------------------------------------------------

Nuc. rep. gradient        (SHARK) ... done (  0.0 sec)
HCore & Overlap gradient  (SHARK) ... done (  0.1 sec)
Split-RIJ-J gradient      (SHARK) ... done (  0.4 sec)
XC gradient                       ... done (  1.0 sec)
Dispersion correction             ... done (  0.1 sec)

-------------------
DISPERSION GRADIENT
-------------------

   1   B   :    0.001606697    0.002531320    0.001938628
   2   B   :    0.003147435    0.003822346    0.004269503
   3   B   :   -0.000603783    0.001980019    0.002006444
   4   B   :    0.001059650    0.004399400   -0.001364059
   5   B   :    0.005280853    0.001866661   -0.004788810
   6   B   :    0.006732643   -0.007249242   -0.000422778
   7   B   :   -0.003250865   -0.002974585    0.005190126
   8   B   :   -0.001281720   -0.000286106    0.001474660
   9   B   :   -0.004141086    0.004586322    0.002071105
  10   B   :   -0.002301966   -0.003912474   -0.004149706
  11   B   :   -0.003622640   -0.001552874   -0.006630103
  12   B   :   -0.002625218   -0.003210788    0.000404989

Difference to translation invariance:
           :   -0.0000000000    0.0000000000   -0.0000000000

Difference to rotation invariance:
           :    0.0000000000   -0.0000000000    0.0000000000

Norm of the Dispersion gradient    ...    0.0211167018
RMS gradient                       ...    0.0035194503
MAX gradient                       ...    0.0072492417

------------------
CARTESIAN GRADIENT
------------------

   1   B   :   -0.022232654   -0.043646756   -0.020370219
   2   B   :   -0.016874550   -0.017818069   -0.028520931
   3   B   :    0.012425233   -0.006959223   -0.023280342
   4   B   :   -0.005652317   -0.050145594    0.032184644
   5   B   :   -0.043314093    0.003952930    0.033584592
   6   B   :   -0.028149324    0.031441307    0.013137643
   7   B   :   -0.003533680    0.044430178   -0.036913922
   8   B   :    0.041053593   -0.007873139   -0.030970987
   9   B   :    0.023476760   -0.043053156   -0.008089843
  10   B   :    0.002913939    0.038070122    0.026669842
  11   B   :    0.018747872    0.005211267    0.034730085
  12   B   :    0.021139221    0.046390131    0.007839437

Difference to translation invariance:
           :   -0.0000000000    0.0000000000    0.0000000000

Difference to rotation invariance:
           :    0.0005613591   -0.0007672049   -0.0001679636

Norm of the Cartesian gradient     ...    0.1687321728
RMS gradient                       ...    0.0281220288
MAX gradient                       ...    0.0501455937

-------
TIMINGS
-------

Total SCF gradient time     ....        1.539 sec

Densities                   ....       0.001 sec  (  0.1%)
One electron gradient       ....       0.053 sec  (  3.5%)
RI-J Coulomb gradient       ....       0.400 sec  ( 26.0%)
XC gradient                 ....       1.026 sec  ( 66.6%)

Maximum memory used throughout the entire SCFGRAD-calculation: 29.7 MB
------------------------------------------------------------------------------
                         ORCA GEOMETRY RELAXATION STEP
------------------------------------------------------------------------------

Reading the OPT-File                    .... done
Getting information on internals        .... done
Copying old internal coords+grads       .... done
Making the new internal coordinates     .... (2022 redundants) done
Validating the new internal coordinates .... (2022 redundants) done
Calculating the B-matrix                .... done
Calculating the G,G- and P matrices     .... done
Transforming gradient to internals      .... done
Projecting the internal gradient        .... done
Number of atoms                         ....  12
Number of internal coordinates          .... 116
Current Energy                          ....  -297.141188976 Eh
Current gradient norm                   ....     0.168732173 Eh/bohr
Maximum allowed component of the step   ....  0.300
Current trust radius                    ....  0.300
Evaluating the initial hessian          ....  (Almloef) done
Projecting the Hessian                  .... done
Forming the augmented Hessian           .... done
Diagonalizing the augmented Hessian     .... done
Last element of RFO vector              ....  0.777835315
Lowest eigenvalues of augmented Hessian:
 -0.158224960  0.018425486  0.021816234  0.029523086  0.030963779
Length of the computed step             ....  0.807970716
Warning: the length of the step is outside the trust region - taking restricted step instead
The input lambda is                     ....     0.016806
   iter:   5  x=    0.006313  g= 4368.000469 f(x)=    23.065675
   iter:  10  x=   -0.251624  g=    6.006922 f(x)=     0.601915
   iter:  15  x=   -0.568125  g=    0.274657 f(x)=     0.000110
The output lambda is                    ....    -0.568125 (18 iterations)
The final length of the internal step   ....  0.300000000
Converting the step to Cartesian space:
 Initial RMS(Int)=    0.0278543007
Transforming coordinates:
 Iter   0:  RMS(Cart)=    0.0972233150 RMS(Int)=    0.0277770669
 Iter   5:  RMS(Cart)=    0.0000003180 RMS(Int)=    0.0000001669
done
Storing new coordinates                 .... done

                                .--------------------.
          ----------------------|Geometry convergence|-------------------------
          Item                value                   Tolerance       Converged
          ---------------------------------------------------------------------
          RMS gradient        0.0183664569            0.0001000000      NO
          MAX gradient        0.0610955634            0.0003000000      NO
          RMS step            0.0278543007            0.0020000000      NO
          MAX step            0.0956967411            0.0040000000      NO
          -------------------------------------------------------------------------
          ........................................................
          Max(Bonds)      0.0466      Max(Angles)    4.52
          Max(Dihed)        5.48      Max(Improp)    0.00
          ---------------------------------------------------------------------

The optimization has not yet converged - more geometry cycles are needed


    ---------------------------------------------------------------------------
                         Redundant Internal Coordinates
                            (Angstroem and degrees)

        Definition                    Value    dE/dq     Step     New-Value
    ----------------------------------------------------------------------------
     1. B(B   1,B   0)                1.9604  0.024502 -0.0186    1.9418   
     2. B(B   2,B   1)                1.7396  0.001394 -0.0014    1.7383   
     3. B(B   2,B   0)                1.7401  0.020220 -0.0145    1.7256   
     4. B(B   3,B   2)                1.8554  0.026931 -0.0197    1.8357   
     5. B(B   4,B   2)                1.8997  0.038276 -0.0296    1.8701   
     6. B(B   5,B   1)                1.9326  0.045485 -0.0348    1.8978   
     7. B(B   5,B   4)                1.8832  0.018910 -0.0142    1.8690   
     8. B(B   7,B   0)                2.0840  0.050683 -0.0409    2.0431   
     9. B(B   8,B   7)                1.8050  0.014013 -0.0109    1.7941   
    10. B(B   8,B   0)                1.9495  0.011232 -0.0098    1.9397   
    11. B(B   9,B   5)                2.0383  0.032470 -0.0260    2.0123   
    12. B(B  10,B   9)                1.9652  0.039666 -0.0308    1.9344   
    13. B(B  10,B   8)                2.0522  0.032181 -0.0266    2.0255   
    14. B(B  10,B   3)                2.0713  0.042677 -0.0349    2.0364   
    15. B(B  11,B   6)                2.0691  0.031667 -0.0263    2.0428   
    16. B(B  11,B  10)                2.0064  0.057428 -0.0466    1.9598   
    17. B(B  11,B   7)                2.0994  0.047093 -0.0395    2.0599   
    18. A(B   1,B   0,B   2)           55.70 -0.006465    0.51     56.21   
    19. A(B   1,B   0,B   7)           96.47  0.012736   -1.15     95.32   
    20. A(B   2,B   0,B   7)          120.07  0.007698   -0.70    119.37   
    21. A(B   1,B   0,B   8)          124.68  0.003319   -0.29    124.39   
    22. A(B   7,B   0,B   8)           53.04 -0.004685    0.43     53.47   
    23. A(B   2,B   0,B   8)           97.21  0.005471   -0.44     96.77   
    24. A(B   2,B   1,B   5)           91.02  0.000017   -0.00     91.02   
    25. A(B   0,B   1,B   2)           55.72  0.001929   -0.12     55.60   
    26. A(B   0,B   1,B   5)          122.50  0.005192   -0.46    122.05   
    27. A(B   1,B   2,B   3)          137.51  0.006124   -0.51    136.99   
    28. A(B   0,B   2,B   4)          138.89  0.013143   -1.15    137.74   
    29. A(B   3,B   2,B   4)           70.41  0.006640   -0.57     69.84   
    30. A(B   1,B   2,B   4)           91.68  0.002323   -0.17     91.52   
    31. A(B   0,B   2,B   1)           68.58  0.004536   -0.39     68.19   
    32. A(B   0,B   2,B   3)           99.61  0.000060   -0.05     99.56   
    33. A(B   2,B   3,B  10)          106.64 -0.013106    1.00    107.64   
    34. A(B   2,B   4,B   5)           87.81 -0.001819    0.14     87.95   
    35. A(B   1,B   5,B   4)           86.44 -0.003533    0.29     86.73   
    36. A(B   4,B   5,B   9)           66.08  0.016281   -1.41     64.67   
    37. A(B   1,B   5,B   9)          117.29 -0.002450    0.24    117.53   
    38. A(B   8,B   7,B  11)           93.53  0.013300   -1.09     92.44   
    39. A(B   0,B   7,B  11)          114.34  0.001139   -0.18    114.16   
    40. A(B   0,B   7,B   8)           59.66 -0.007833    0.65     60.31   
    41. A(B   7,B   8,B  10)           91.82 -0.003701    0.25     92.06   
    42. A(B   0,B   8,B  10)          110.78 -0.007311    0.57    111.35   
    43. A(B   0,B   8,B   7)           67.30  0.012518   -1.08     66.22   
    44. A(B   5,B   9,B  10)          117.32 -0.013018    0.97    118.30   
    45. A(B   8,B  10,B   9)          126.03  0.016125   -1.21    124.82   
    46. A(B   3,B  10,B   9)           89.94  0.006078   -0.42     89.52   
    47. A(B   3,B  10,B   8)           68.49  0.001555   -0.04     68.45   
    48. A(B   9,B  10,B  11)           65.54  0.018489   -1.68     63.86   
    49. A(B   8,B  10,B  11)           89.28  0.006082   -0.48     88.79   
    50. A(B   3,B  10,B  11)          128.02  0.022620   -1.95    126.07   
    51. A(B   6,B  11,B   7)           66.47  0.034854   -2.78     63.70   
    52. A(B   7,B  11,B  10)           85.04 -0.016052    1.37     86.41   
    53. A(B   6,B  11,B  10)          116.28  0.052124   -4.52    111.76   
    54. D(B   2,B   1,B   0,B   8)    -73.31  0.000703   -0.07    -73.38   
    55. D(B   5,B   1,B   0,B   7)    -56.33 -0.005542    0.53    -55.80   
    56. D(B   5,B   1,B   0,B   2)     65.88 -0.003396    0.34     66.23   
    57. D(B   5,B   1,B   0,B   8)     -7.43 -0.002693    0.27     -7.16   
    58. D(B   2,B   1,B   0,B   7)   -122.21 -0.002146    0.18   -122.03   
    59. D(B   4,B   2,B   0,B   1)    -66.33  0.001636   -0.22    -66.54   
    60. D(B   3,B   2,B   1,B   0)     80.64  0.001870   -0.24     80.40   
    61. D(B   1,B   2,B   0,B   8)    127.44  0.002371   -0.21    127.22   
    62. D(B   3,B   2,B   0,B   8)    -10.03 -0.003469    0.26     -9.78   
    63. D(B   3,B   2,B   0,B   7)    -61.20  0.000957   -0.19    -61.39   
    64. D(B   3,B   2,B   1,B   5)    -49.02 -0.003953    0.30    -48.72   
    65. D(B   0,B   2,B   1,B   5)   -129.66 -0.005824    0.54   -129.12   
    66. D(B   1,B   2,B   0,B   7)     76.27  0.006797   -0.66     75.61   
    67. D(B   4,B   2,B   1,B   0)    142.95  0.011857   -1.06    141.89   
    68. D(B   3,B   2,B   0,B   1)   -137.47 -0.005840    0.47   -137.00   
    69. D(B   4,B   2,B   1,B   5)     13.29  0.006033   -0.52     12.77   
    70. D(B  10,B   3,B   2,B   4)    -79.93 -0.011292    0.98    -78.95   
    71. D(B  10,B   3,B   2,B   1)     -9.96 -0.003589    0.37     -9.59   
    72. D(B  10,B   3,B   2,B   0)     58.73  0.001789   -0.14     58.59   
    73. D(B   5,B   4,B   2,B   3)    126.93 -0.004826    0.42    127.34   
    74. D(B   5,B   4,B   2,B   1)    -13.66 -0.007956    0.69    -12.97   
    75. D(B   5,B   4,B   2,B   0)     44.88 -0.006108    0.59     45.46   
    76. D(B   9,B   5,B   4,B   2)   -109.73  0.011084   -1.01   -110.74   
    77. D(B   9,B   5,B   1,B   0)     -1.69  0.010733   -1.01     -2.70   
    78. D(B   4,B   5,B   1,B   2)    -13.43 -0.007412    0.64    -12.79   
    79. D(B   4,B   5,B   1,B   0)    -62.40 -0.007176    0.56    -61.83   
    80. D(B   1,B   5,B   4,B   2)     12.29  0.004545   -0.40     11.89   
    81. D(B   9,B   5,B   1,B   2)     47.27  0.010497   -0.92     46.35   
    82. D(B   8,B   7,B   0,B   2)     75.28 -0.002776    0.35     75.63   
    83. D(B   8,B   7,B   0,B   1)    129.14 -0.004564    0.43    129.57   
    84. D(B  11,B   7,B   0,B   1)     49.89 -0.016494    1.34     51.23   
    85. D(B  11,B   7,B   0,B   8)    -79.25 -0.011930    0.92    -78.34   
    86. D(B  11,B   7,B   0,B   2)     -3.98 -0.014706    1.27     -2.71   
    87. D(B  10,B   8,B   7,B  11)      4.45  0.002822   -0.33      4.12   
    88. D(B  10,B   8,B   7,B   0)   -111.81  0.008032   -0.66   -112.47   
    89. D(B   0,B   8,B   7,B  11)    116.26 -0.005210    0.32    116.58   
    90. D(B  10,B   8,B   0,B   7)     82.99  0.004529   -0.45     82.55   
    91. D(B  10,B   8,B   0,B   2)    -39.47 -0.002533    0.25    -39.22   
    92. D(B  10,B   8,B   0,B   1)     13.43 -0.007728    0.66     14.09   
    93. D(B   7,B   8,B   0,B   2)   -122.47 -0.007062    0.70   -121.77   
    94. D(B   7,B   8,B   0,B   1)    -69.57 -0.012258    1.11    -68.46   
    95. D(B  10,B   9,B   5,B   4)     74.88 -0.002023    0.20     75.08   
    96. D(B  10,B   9,B   5,B   1)      2.66 -0.010148    0.94      3.60   
    97. D(B  11,B  10,B   9,B   5)     74.58  0.015617   -1.50     73.07   
    98. D(B   8,B  10,B   9,B   5)      4.95  0.001517   -0.13      4.81   
    99. D(B   3,B  10,B   9,B   5)    -58.04  0.000540   -0.18    -58.23   
   100. D(B  11,B  10,B   8,B   0)    -71.02 -0.015578    1.47    -69.55   
   101. D(B   9,B  10,B   8,B   7)     53.93  0.019605   -1.75     52.18   
   102. D(B   9,B  10,B   8,B   0)    -12.44  0.006636   -0.61    -13.04   
   103. D(B   3,B  10,B   8,B   7)    127.19  0.019243   -1.61    125.58   
[...]
      pz      :     0.695954  p :     1.812881
      px      :     0.588657
      py      :     0.528270
      dz2     :     0.011836  d :     0.054389
      dxz     :     0.011681
      dyz     :     0.006690
      dx2y2   :     0.012878
      dxy     :     0.011303

  9 B s       :     3.129461  s :     3.129461
      pz      :     0.696892  p :     1.918221
      px      :     0.618714
      py      :     0.602615
      dz2     :     0.013701  d :     0.063178
      dxz     :     0.009689
      dyz     :     0.016600
      dx2y2   :     0.010256
      dxy     :     0.012933

 10 B s       :     3.315913  s :     3.315913
      pz      :     0.527251  p :     1.812533
      px      :     0.444724
      py      :     0.840558
      dz2     :     0.012634  d :     0.054420
      dxz     :     0.010741
      dyz     :     0.013998
      dx2y2   :     0.007120
      dxy     :     0.009926

 11 B s       :     2.878189  s :     2.878189
      pz      :     0.756486  p :     1.993305
      px      :     0.651560
      py      :     0.585260
      dz2     :     0.018987  d :     0.090941
      dxz     :     0.017539
      dyz     :     0.019833
      dx2y2   :     0.019713
      dxy     :     0.014868



                     *******************************
                     * LOEWDIN POPULATION ANALYSIS *
                     *******************************

----------------------
LOEWDIN ATOMIC CHARGES
----------------------
   0 B :    0.054782
   1 B :    0.001842
   2 B :   -0.031722
   3 B :   -0.068737
   4 B :    0.054536
   5 B :   -0.033920
   6 B :   -0.034176
   7 B :   -0.081094
   8 B :    0.029822
   9 B :   -0.081306
  10 B :    0.029998
  11 B :    0.159976

-------------------------------
LOEWDIN REDUCED ORBITAL CHARGES
-------------------------------
  0 B s       :     2.589762  s :     2.589762
      pz      :     0.558819  p :     2.151260
      px      :     0.850217
      py      :     0.742224
      dz2     :     0.034363  d :     0.204196
      dxz     :     0.045061
      dyz     :     0.031173
      dx2y2   :     0.048243
      dxy     :     0.045356

  1 B s       :     2.576146  s :     2.576146
      pz      :     0.756871  p :     2.228255
      px      :     0.683846
      py      :     0.787537
      dz2     :     0.040960  d :     0.193757
      dxz     :     0.029687
      dyz     :     0.043060
      dx2y2   :     0.037636
      dxy     :     0.042414

  2 B s       :     2.642163  s :     2.642163
      pz      :     0.818193  p :     2.257379
      px      :     0.693312
      py      :     0.745874
      dz2     :     0.025001  d :     0.132180
      dxz     :     0.017417
      dyz     :     0.030004
      dx2y2   :     0.035885
      dxy     :     0.023874

  3 B s       :     2.716871  s :     2.716871
      pz      :     0.757901  p :     2.212262
      px      :     0.837269
      py      :     0.617092
      dz2     :     0.025601  d :     0.139604
      dxz     :     0.035560
      dyz     :     0.026564
      dx2y2   :     0.031266
      dxy     :     0.020613

  4 B s       :     2.589685  s :     2.589685
      pz      :     0.781202  p :     2.151432
      px      :     0.553365
      py      :     0.816865
      dz2     :     0.045380  d :     0.204347
      dxz     :     0.033937
      dyz     :     0.046805
      dx2y2   :     0.039674
      dxy     :     0.038550

  5 B s       :     2.632425  s :     2.632425
      pz      :     0.834497  p :     2.225138
      px      :     0.676269
      py      :     0.714372
      dz2     :     0.037126  d :     0.176357
      dxz     :     0.031153
      dyz     :     0.044392
      dx2y2   :     0.029583
      dxy     :     0.034103

  6 B s       :     2.632332  s :     2.632332
      pz      :     0.665041  p :     2.225479
      px      :     0.797331
      py      :     0.763106
      dz2     :     0.037625  d :     0.176365
      dxz     :     0.037973
      dyz     :     0.027052
      dx2y2   :     0.037437
      dxy     :     0.036278

  7 B s       :     2.696642  s :     2.696642
      pz      :     0.703750  p :     2.236365
      px      :     0.739402
      py      :     0.793213
      dz2     :     0.035142  d :     0.148088
      dxz     :     0.029044
      dyz     :     0.022976
      dx2y2   :     0.029987
      dxy     :     0.030939

  8 B s       :     2.800071  s :     2.800071
      pz      :     0.762809  p :     2.042993
      px      :     0.646904
      py      :     0.633280
      dz2     :     0.025964  d :     0.127114
      dxz     :     0.030056
      dyz     :     0.018508
      dx2y2   :     0.030750
      dxy     :     0.021836

  9 B s       :     2.696458  s :     2.696458
      pz      :     0.767850  p :     2.236715
      px      :     0.700781
      py      :     0.768083
      dz2     :     0.033310  d :     0.148134
      dxz     :     0.028314
      dyz     :     0.032689
      dx2y2   :     0.022624
      dxy     :     0.031198

 10 B s       :     2.800410  s :     2.800410
      pz      :     0.612402  p :     2.042463
      px      :     0.516792
      py      :     0.913268
      dz2     :     0.024134  d :     0.127129
      dxz     :     0.024439
      dyz     :     0.034226
      dx2y2   :     0.021198
      dxy     :     0.023132

 11 B s       :     2.621424  s :     2.621424
      pz      :     0.794840  p :     2.009401
      px      :     0.634182
      py      :     0.580378
      dz2     :     0.051542  d :     0.209199
      dxz     :     0.040503
      dyz     :     0.045258
      dx2y2   :     0.039081
      dxy     :     0.032814



                      *****************************
                      * MAYER POPULATION ANALYSIS *
                      *****************************

  NA   - Mulliken gross atomic population
  ZA   - Total nuclear charge
  QA   - Mulliken gross atomic charge
  VA   - Mayer's total valence
  BVA  - Mayer's bonded valence
  FA   - Mayer's free valence

  ATOM       NA         ZA         QA         VA         BVA        FA
  0 B      4.9848     5.0000     0.0152     3.7166     3.7166     0.0000
  1 B      4.8043     5.0000     0.1957     3.8459     3.8459     0.0000
  2 B      5.0041     5.0000    -0.0041     4.6432     4.6432     0.0000
  3 B      4.6804     5.0000     0.3196     3.8922     3.8922    -0.0000
  4 B      4.9837     5.0000     0.0163     3.7160     3.7160    -0.0000
  5 B      4.9970     5.0000     0.0030     3.9690     3.9690     0.0000
  6 B      4.9982     5.0000     0.0018     3.9707     3.9707     0.0000
  7 B      5.1093     5.0000    -0.1093     3.5765     3.5765     0.0000
  8 B      5.1820     5.0000    -0.1820     3.5402     3.5402    -0.0000
  9 B      5.1109     5.0000    -0.1109     3.5787     3.5787    -0.0000
 10 B      5.1829     5.0000    -0.1829     3.5399     3.5399     0.0000
 11 B      4.9624     5.0000     0.0376     3.4503     3.4503     0.0000

  Mayer bond orders larger than 0.100000
B(  0-B ,  1-B ) :   0.7630 B(  0-B ,  2-B ) :   0.8144 B(  0-B ,  3-B ) :   0.2009 
B(  0-B ,  4-B ) :   0.2688 B(  0-B ,  6-B ) :   0.5542 B(  0-B ,  7-B ) :   0.4873 
B(  0-B ,  8-B ) :   0.3160 B(  0-B , 11-B ) :   0.1549 B(  1-B ,  2-B ) :   0.6467 
B(  1-B ,  4-B ) :   0.7630 B(  1-B ,  5-B ) :   0.4871 B(  1-B ,  6-B ) :   0.4873 
B(  1-B ,  7-B ) :   0.1281 B(  1-B ,  8-B ) :   0.1555 B(  1-B ,  9-B ) :   0.1282 
B(  1-B , 10-B ) :   0.1557 B(  2-B ,  3-B ) :   1.0659 B(  2-B ,  4-B ) :   0.8153 
B(  2-B ,  5-B ) :   0.3021 B(  2-B ,  6-B ) :   0.3019 B(  2-B ,  7-B ) :   0.1981 
B(  2-B ,  8-B ) :   0.1687 B(  2-B ,  9-B ) :   0.1991 B(  2-B , 10-B ) :   0.1696 
B(  3-B ,  4-B ) :   0.1997 B(  3-B ,  8-B ) :   0.9924 B(  3-B , 10-B ) :   0.9917 
B(  3-B , 11-B ) :   0.1417 B(  4-B ,  5-B ) :   0.5544 B(  4-B ,  9-B ) :   0.4867 
B(  4-B , 10-B ) :   0.3158 B(  4-B , 11-B ) :   0.1555 B(  5-B ,  6-B ) :   0.7517 
B(  5-B ,  8-B ) :   0.1297 B(  5-B ,  9-B ) :   0.9320 B(  5-B , 10-B ) :   0.1449 
B(  5-B , 11-B ) :   0.4667 B(  6-B ,  7-B ) :   0.9325 B(  6-B ,  8-B ) :   0.1443 
B(  6-B , 10-B ) :   0.1297 B(  6-B , 11-B ) :   0.4683 B(  7-B ,  8-B ) :   1.0019 
B(  7-B , 11-B ) :   0.6033 B(  8-B , 10-B ) :   0.2147 B(  8-B , 11-B ) :   0.4141 
B(  9-B , 10-B ) :   1.0007 B(  9-B , 11-B ) :   0.6055 B( 10-B , 11-B ) :   0.4139 


-------
TIMINGS
-------

Total SCF time: 0 days 0 hours 0 min 5 sec 

Total time                  ....       5.301 sec
Sum of individual times     ....       4.913 sec  ( 92.7%)

SCF preparation             ....       0.955 sec  ( 18.0%)
Fock matrix formation       ....       3.417 sec  ( 64.5%)
  Startup                   ....       0.015 sec  (  0.5% of F)
  Split-RI-J                ....       1.095 sec  ( 32.0% of F)
  XC integration            ....       2.367 sec  ( 69.3% of F)
    XC Preparation          ....       0.000 sec  (  0.0% of XC)
    Basis function eval.    ....       0.582 sec  ( 24.6% of XC)
    Density eval.           ....       0.487 sec  ( 20.6% of XC)
    XC-Functional eval.     ....       0.060 sec  (  2.5% of XC)
    XC-Potential eval.      ....       0.577 sec  ( 24.4% of XC)
Diagonalization             ....       0.000 sec  (  0.0%)
Density matrix formation    ....       0.075 sec  (  1.4%)
Total Energy calculation    ....       0.032 sec  (  0.6%)
Population analysis         ....       0.148 sec  (  2.8%)
Orbital Transformation      ....       0.032 sec  (  0.6%)
Orbital Orthonormalization  ....       0.000 sec  (  0.0%)
DIIS solution               ....       0.024 sec  (  0.5%)
SOSCF solution              ....       0.231 sec  (  4.4%)
Finished LeanSCF after   5.5 sec

Maximum memory used throughout the entire LEANSCF-calculation: 11.8 MB


-------------------------------------------------------------------------------
                          DFT DISPERSION CORRECTION                            
                                                                               
                              DFTD3 V3.1  Rev 1                                
                          USING Becke-Johnson damping                          
-------------------------------------------------------------------------------
The BP86 functional is recognized
Active option DFTDOPT                   ...         4   

molecular C6(AA) [au] = 4156.357533 


            DFT-D V3
 parameters
 s6 scaling factor         :     1.0000 
 a1 scaling factor         :     0.3946 
 s8 scaling factor         :     3.2822 
 a2 scaling factor         :     4.8516 
 ad hoc parameters k1-k3   :    16.0000     1.3333    -4.0000 

 Edisp/kcal,au: -23.983688472018  -0.038220436352 
 E6   /kcal   :  -6.824414214 
 E8   /kcal   : -17.159274258 
 % E8         :  71.545601830 

-------------------------   ----------------
Dispersion correction           -0.038220436
-------------------------   ----------------


-------------------------   --------------------
FINAL SINGLE POINT ENERGY      -297.659770571657
-------------------------   --------------------

                                *** OPTIMIZATION RUN DONE ***



           ************************************************************
           *        Program running with 8 parallel MPI-processes     *
           *              working on a common directory               *
           ************************************************************

------------------------------------------------------------------------------
                              ORCA PROPERTY CALCULATIONS
------------------------------------------------------------------------------

GBWName                                 ... cuboctahedron_nn2.00_perturb0.gbw
Number of atoms                         ...     12
Number of basis functions               ...    168
Max core memory                         ...   2500 MB

Electric properties:
Dipole moment                           ... YES
Quadrupole moment                       ...  NO
Static polarizability (Dipole/Dipole)   ...  NO
Static polarizability (Dipole/Quad.)    ...  NO
Static polarizability (Quad./Quad.)     ...  NO
Static polarizability (Velocity)        ...  NO
Static hyperpolarizability              ...  NO

Atomic electric properties:
Dipole moment                           ...  NO
Quadrupole moment                       ...  NO
Static polarizability                   ...  NO

Choice of electric origin               ... Center of mass
Position of electric origin             ...    -0.035362    -0.025699    -0.031341

General magnetic properties:
Magnetizability                         ...  NO

EPR properties:
g-Tensor (aka g-matrix)                 ...  NO
Zero-Field splitting spin-orbit         ...  NO
Zero-field splitting spin-spin          ...  NO
Hyperfine couplings                     ...  NO (   0 nuclei)
Quadrupole couplings                    ...  NO (   0 nuclei)
Contact density                         ...  NO (   0 nuclei)

NMR properties:
Chemical shifts                         ...  NO (   0 nuclei)
Spin-rotation constants                 ...  NO (   0 nuclei)
Spin-spin couplings                     ...  NO (   0 nuclei,    0 pairs)

Choice of magnetic origin               ... GIAO
Position of magnetic origin             ...     0.000000     0.000000     0.000000

Properties with geometric perturbations:
SCF Hessian                             ...  NO
IR spectrum                             ...  NO
VCD spectrum                            ...  NO
X-ray spectroscopy properties:
SCF XES/XAS/RIXS spectra                ...  NO

SCF SOC stabilization energy            ...  NO
Diagonal Born-Oppenheimer correction    ...  NO

-------------
DIPOLE MOMENT
-------------

Method             : SCF
Type of density    : Electron Density
Multiplicity       :   1
Irrep              :   0
Energy             :  -297.6215501353048012 Eh
Basis              : AO
                                X                 Y                 Z
Electronic contribution:     -0.527930037       0.105324945      -0.376561220
Nuclear contribution   :      0.000000000      -0.000000000       0.000000000
                        -----------------------------------------
Total Dipole Moment    :     -0.527930037       0.105324945      -0.376561220
                        -----------------------------------------
Magnitude (a.u.)       :      0.656964093
Magnitude (Debye)      :      1.669870018



--------------------
Rotational spectrum 
--------------------
 
Rotational constants in cm-1:             0.074390             0.068337             0.060037 
Rotational constants in MHz :          2230.157640          2048.700655          1799.871055 

Dipole components along the rotational axes: 
x,y,z [a.u.] :     0.000140     0.467471     0.461598 
x,y,z [Debye]:     0.000356     1.188216     1.173290 

 

Dipole moment calculation done in   0.0 sec 

Maximum memory used throughout the entire PROP-calculation: 9.4 MB

--------------------------------
SUGGESTED CITATIONS FOR THIS RUN
--------------------------------

Below you find a list of papers that are relevant to this ORCA run
We neither can nor want to force you to cite these papers, but we appreciate if you do
You receive ORCA, which is the product of decades of hard work by many enthusiastic individuals, for free
The only thing we kindly ask in return is that you cite our papers,
We deeply appreciate it, if you show your appreciation for ORCA by not just citing the generic ORCA reference.

Please note that relegating all ORCA citations to the supporting information does *not* help us.
SI sections are not indexed - citations you put there will not count into any citation statistics
But we need these citations in order to attract the funding resources that allow us to do what we are doing

Therefore, if you are a happy ORCA user, please consider citing a few of the papers listed below in the main body of your paper

In addition to the list printed below, the program has created the file cuboctahedron_nn2.00_perturb0.bibtex that contains the list in bibtex format
You can import this file easily into all common literature databanks and citation aid programs

It goes without saying that in many instances, there are alternative algorithms to achieve similar
results as the ones you have gotten from ORCA. It is, of course, also the case that in some instances
ORCA just re-implements algorithms worked out by others. We are fully aware of that and we are also
fully appreciative of our colleagues work. Hence this citation list should not be read as indicating
that the listed papers, which are focused on our own work, are the only ones worth citing. It simply
meant to make it easier for users to cite ORCA specific papers. It is not a substitute for doing your
own literature research and citing the relevant literature in a scientifically appropriate manner.

List of essential papers. We consider these as the minimum necessary citations

  1. Neese, F.
     Software update: the ORCA program system, version 6.0
     WIRES Comput. Molec. Sci. 2025 15(1), e70019
     doi.org/10.1002/wcms.70019

List of papers to cite with high priority. The work reported in these papers was absolutely
necessary for this run to complete.
Our perspective: the developers of density functionals and basis sets usually get cited in chemistry papers
Good! But without the algorithms to do something with them, the functionals or basis sets would not do anything.
Hence, in our opinion, the algorithm design and method developments papers are equally worthy of getting cited

  1. Neese, F.
     An improvement of the resolution of the identity approximation for the formation of the Coulomb matrix
     J. Comp. Chem. 2003 24(14), 1740-1747
     doi.org/10.1002/jcc.10318
  2. Grimme, S.; Antony, J.; Ehrlich, S.; Krieg, H.
     A consistent and accurate ab initio parametrization of density functional dispersion correction (DFT-D) for the 94 elements H-Pu
     J. Chem. Phys. 2010 132 , 154104
     doi.org/10.1063/1.3382344
  3. Grimme, S.; Ehrlich, S.; Goerigk, L.
     Effect of the damping function in dispersion corrected density functional theory
     J. Comput. Chem. 2011 32(7), 1456-1465
     doi.org/10.1002/jcc.21759
  4. Neese, F.
     The SHARK Integral Generation and Digestion System
     J. Comp. Chem. 2022 44(3), 381
     doi.org/10.1002/jcc.26942

List of suggested additional citations. These are papers that are important in the 'surrounding' of 
of this run, or papers that preceded the highly important papers. If you like your results we are grateful for a citation.

  1. Neese, F.
     The ORCA program system
     WIRES Comput. Molec. Sci. 2012 2(1), 73-78
     doi.org/10.1002/wcms.81
  2. Neese, F.
     Software update: the ORCA program system, version 4.0
     WIRES Comput. Molec. Sci. 2018 8(1), 1-6
     doi.org/10.1002/wcms.1327
  3. Neese, F.; Wennmohs, F.; Becker, U.; Riplinger, C.
     The ORCA quantum chemistry program package
     J. Chem. Phys. 2020 152(22), 224108
     doi.org/10.1063/5.0004608
  4. Neese, F.
     Software update: The ORCA program system—Version 5.0
     WIRES Comput. Molec. Sci. 2022 12(1), e1606
     doi.org/10.1002/wcms.1606

List of optional additional citations

  1. Neese, F.
     Approximate second-order SCF convergence for spin unrestricted wavefunctions
     Chem. Phys. Lett. 2000 325(1-3), 93-98
     doi.org/10.1016/s0009-2614(00)00662-x

Timings for individual modules:

Sum of individual times          ...      554.044 sec (=   9.234 min)
Startup calculation              ...       59.452 sec (=   0.991 min)  10.7 %
SCF iterations                   ...      403.050 sec (=   6.717 min)  72.7 %
Property calculations            ...        0.735 sec (=   0.012 min)   0.1 %
SCF Gradient evaluation          ...       90.525 sec (=   1.509 min)  16.3 %
Geometry relaxation              ...        0.283 sec (=   0.005 min)   0.1 %
                             ****ORCA TERMINATED NORMALLY****
TOTAL RUN TIME: 0 days 0 hours 9 minutes 42 seconds 790 msec
