
                                 *****************
                                 * O   R   C   A *
                                 *****************

                                            #,                                       
                                            ###                                      
                                            ####                                     
                                            #####                                    
                                            ######                                   
                                           ########,                                 
                                     ,,################,,,,,                         
                               ,,#################################,,                 
                          ,,##########################################,,             
                       ,#########################################, ''#####,          
                    ,#############################################,,   '####,        
                  ,##################################################,,,,####,       
                ,###########''''           ''''###############################       
              ,#####''   ,,,,##########,,,,          '''####'''          '####       
            ,##' ,,,,###########################,,,                        '##       
           ' ,,###''''                  '''############,,,                           
         ,,##''                                '''############,,,,        ,,,,,,###''
      ,#''                                            '''#######################'''  
     '                                                          ''''####''''         
             ,#######,   #######,   ,#######,      ##                                
            ,#'     '#,  ##    ##  ,#'     '#,    #''#        ,####,    ,#,          
            ##       ##  ##   ,#'  ##            #'  '#       #'       ,# #          
            ##       ##  #######   ##           ,######,      #####,      #          
            '#,     ,#'  ##    ##  '#,     ,#' ,#      #,     #,   #      #          
             '#######'   ##     ##  '#######'  #'      '#     '####' #    #          



                #########################################################
                #                        -***-                          #
                #          Department of theory and spectroscopy        #
                #                                                       #
                #                      Frank Neese                      #
                #                                                       #
                #     Directorship, Architecture, Infrastructure        #
                #                    SHARK, DRIVERS                     #
                #        Core code/Algorithms in most modules           #
                #                                                       #
                #        Max Planck Institute fuer Kohlenforschung      #
                #                Kaiser Wilhelm Platz 1                 #
                #                 D-45470 Muelheim/Ruhr                 #
                #                      Germany                          #
                #                                                       #
                #                  All rights reserved                  #
                #                        -***-                          #
                #########################################################


                         Program Version 6.1.1  -  RELEASE   -
                                (GIT: $487d211c$)
                          ($2025-11-21 10:33:24 +0100$)
                                                                         
                                  - NO-DMRG VERSION -                    
                                                                         


 With contributions from (in alphabetic order):
[Max-Planck-Institut fuer Kohlenforschung]                               
  Daniel Aravena         : Magnetic Suceptibility                        
  Michael Atanasov       : Ab Initio Ligand Field Theory (pilot matlab implementation)
  Alexander A. Auer      : GIAO ZORA, VPT2 properties, NMR spectrum      
  Ute Becker             : All parallelization in ORCA, NUMFREQ, NUMCALC 
  Giovanni Bistoni       : ED, misc. LED, open-shell LED, HFLD           
  Dmytro Bykov           : pre 5.0 version of the SCF Hessian            
  Marcos Casanova-Páez   : Triplet and SCS-CIS(D). UHF-(DLPNO)-IP/EA/STEOM-CCSD. UHF-CVS-IP/STEOM-CCSD   
  Vijay G. Chilkuri      : MRCI spin determinant printing, contributions to CSF-ICE 
  Pauline Colinet        : FMM embedding                                 
  Dipayan Datta          : RHF DLPNO-CCSD density                        
  Achintya Kumar Dutta   : EOM-CC, STEOM-CC                              
  Nicolas Foglia         : Exact transition moments, OPA infrastructure, MCD improvements    
  Dmitry Ganyushin       : Spin-Orbit,Spin-Spin,Magnetic field MRCI      
  Miquel Garcia-Rates    : C-PCM and meta-GGA Hessian, CCSD/C-PCM, Gaussian charge scheme 
  Tiago L. C. Gouveia    : GS-ROHF, GS-ROCIS                             
  Yang Guo               : DLPNO-NEVPT2, F12-NEVPT2, CIM, IAO-localization        
  Andreas Hansen         : Spin unrestricted coupled pair/coupled cluster methods 
  Ingolf Harden          : AUTO-CI MPn and infrastructure                
  Benjamin Helmich-Paris : MC-RPA, TRAH-(SCF,CASSCF), AVAS, COSX integrals, SCF dyn. polar., MC-PDFT, srDFT 
  Lee Huntington         : MR-EOM, pCC                                   
  Robert Izsak           : Overlap fitted RIJCOSX, COSX-SCS-MP3, EOM     
  Riya Kayal             : Wick's Theorem for AUTO-CI, AUTO-CI UHF-CCSDT 
  Emily Kempfer          : AUTO-CI RHF CISDT and CCSDT, approximate NEVPT4
  Christian Kollmar      : KDIIS, OOCD, Brueckner-CCSD(T), CCSD density, CASPT2, CASPT2-K, improved NEVPT2 
  Axel Koslowski         : Symmetry handling                             
  Simone Kossmann        : meta-GGA functionals, TD-DFT gradient, OOMP2, (MP2 Hessian; deprecated post 5.0) 
  Lucas Lang             : DCDCAS, Hyperfine gauge corrections, ICE-SOC+SSC
  Marvin Lechner         : AUTO-CI (C++ implementation), FIC-MRCC        
  Spencer Leger          : CASSCF response                               
  Dagmar Lenk            : GEPOL surface, SMD, ORCA-2-JSON               
  Dimitrios Liakos       : Extrapolation schemes; Compound Job, Property file
  Dimitrios Manganas     : Further ROCIS development; embedding schemes. LFT, Crystal Embedding 
  Dimitrios Pantazis     : SARC Basis sets                               
  Anastasios Papadopoulos: AUTO-CI, single reference methods and gradients 
  Taras Petrenko         : pre 6.0 DFT Hessian and TD-DFT gradient,  ECA, NRVS 
  Petra Pikulova         : Analytic Raman intensities                    
  Peter Pinski           : DLPNO-MP2, DLPNO-MP2 Gradient                 
  Shashank Vittal Rao    : ES-AILFT, MagRelax                            
  Christoph Reimann      : Effective Core Potentials                     
  Marius Retegan         : Local ZFS, SOC                                
  Christoph Riplinger    : Optimizer, TS searches, QM/MM, DLPNO-CCSD(T), (RO)-DLPNO pert. Triples 
  Michael Roemelt        : Original ROCIS implementation, recursive CI coupling coefficients
  Masaaki Saitow         : Open-shell DLPNO-CCSD energy and density      
  Barbara Sandhoefer     : DKH picture change effects                    
  Yorick L. A. Schmerwitz: GMF and freeze-and-release deltaSCF, NEB S-IDPP initial path                    
  Kantharuban Sivalingam : CASSCF convergence/infrastructure, NEVPT2, NEVPT3, NEVPT4(SD), FIC-MRCI and CEPA variants
  Bernardo de Souza      : ESD, SOC TD-DFT                               
  Georgi L. Stoychev     : AutoAux, RI-MP2 NMR, DLPNO-MP2 response, X2C  
  Van Anh Tran           : RI-MP2 g-tensors                              
  Willem Van den Heuvel  : Paramagnetic NMR                              
  Zikuan Wang            : NOTCH, Electric field optimization            
  Frank Wennmohs         : Technical directorship and infrastructure     
  Hang Xu                : AUTO-CI-Response properties                   
                                                                         
[FACCTs GmbH]                                                            
  Markus Bursch, Nicolas Foglia, Miquel Garcia-Rates, Ingolf Harden, Hagen Neugebauer, Anastasios Papadopoulos, 
  Christoph Riplinger, Bernardo de Souza, Georgi L. Stoychev                                                    
                                                                 
  APM, various basis sets, CI-OPT, improved COSX, DLPNO-Multilevel,           
  DOCKER, DRACO, updates on ESD, Fragmentator, GOAT, IRC, LR-CPCM, L-BFGS, MBIS, meta-GGA TD-DFT gradient, ML-optimized integration grids, 
  MM, NACMEs, nearIR, NEB, NEB-TS, NL-DFT gradient (VV10), 2- and 3-layer-ONIOM, interface openCOSMO-RS, QMMM,   
  Crystal-QMMM, RESP, rigid body optimization, SF, symmetry and pop. for TD-DFT, various functionals, SOLVATOR                                   
                                                                         
[Other institutions]                                                     
  V. Asgeirsson          : NEB                                           
  Christoph Bannwarth    : sTDA-DFT, sTD-DFT, PBEh-3c, B97-3c, D3        
  Giovanni Bistoni       : ETS/NOCV, ADLD/ADEX, COVALED                  
  Martin Brehm           : Molecular dynamics                            
  Ronald Cardenas        : ETS/NOCV                                      
  Martina Colucci        : COVALED                                       
  Sebastian Ehlert       : rSCAN, r2SCAN, r2SCAN-3c, D4, dhf basis sets  
  Marvin Friede          : D4 for Fr, Ra, Ac-Lr                          
  Lars Goerigk           : TD-DFT with DH, B97 family of functionals     
  Stefan Grimme          : VdW corrections, initial TS optimization, DFT functionals, gCP, sTDA/sTD-DF 
  Waldemar Hujo          : DFT-NL                                        
  H. Jonsson             : NEB                                           
  Holger Kruse           : gCP                                           
  Marcel Mueller         : wB97X-3c, vDZP basis set                      
  Hagen Neugebauer       : wr2SCAN, Native XTB                           
  Gianluca Regni         : ADLD/ADEX                                     
  Tobias Risthaus        : pre 6.0 range-separated hybrid DFT and stability analysis
  Lukas Wittmann         : regularized MP2, r2SCAN double-hybrids, wr2SCAN        
                                                                         
We gratefully acknowledge several colleagues who have allowed us to      
interface, adapt or use parts of their codes:                            
  Ed Valeev, F. Pavosevic, A. Kumar             : LibInt (2-el integral package), F12 methods 
  Garnet Chan, S. Sharma, J. Yang, R. Olivares  : DMRG                   
  Ulf Ekstrom                                   : XCFun DFT Library      
  Mihaly Kallay                                 : mrcc  (arbitrary order and MRCC methods)
  Frank Weinhold                                : gennbo (NPA and NBO analysis)           
  Simon Mueller                                 : openCOSMO-RS                            
  Christopher J. Cramer and Donald G. Truhlar   : smd solvation model                     
  S Lehtola, MJT Oliveira, MAL Marques          : LibXC Library                           
  Liviu Ungur et al                             : ANISO software                          


 Your calculation uses the libint2 library for the computation of 2-el integrals
 For citations please refer to: http://libint.valeyev.net

 Your ORCA version has been built with support for libXC version: 7.0.0
 For citations please refer to: https://libxc.gitlab.io

 This ORCA versions uses:
   CBLAS   interface :  Fast vector & matrix operations
   LAPACKE interface :  Fast linear algebra routines
   SCALAPACK package :  Parallel linear algebra routines
   Shared memory     :  Shared parallel matrices
   BLAS/LAPACK       :  OpenBLAS 0.3.29  USE64BITINT DYNAMIC_ARCH NO_AFFINITY Zen SINGLE_THREADED
        Core in use  :  Zen
   Copyright (c) 2011-2014, The OpenBLAS Project


  ***********************************
  * Starting time: Thu Apr 23 12:10:15 2026
  * Host name:     vmi3233575
  * Process ID:    1194555
  * Working dir.:  /root/b12_scan/jobs/double_ring_nn2.50
  ***********************************

NOTE: MaxCore=2500 MB was set to SCF,MP2,MDCI,CIPSI,MRCI,RASCI and CIS
      => If you want to overwrite this, your respective input block should be placed after the MaxCore statement
Your calculation utilizes the atom-pairwise dispersion correction
with the Becke-Johnson damping scheme (D3BJ)


================================================================================

----- Orbital basis set information -----
Your calculation utilizes the basis: def2-SVP
   F. Weigend and R. Ahlrichs, Phys. Chem. Chem. Phys. 7, 3297 (2005).

----- AuxJ basis set information -----
Your calculation utilizes the auxiliary basis: def2/J
   H-Rn: F. Weigend, Phys. Chem. Chem. Phys. 8, 1057 (2006).
   Fr-Lr: K. Eichkorn, F. Weigend, O. Treutler, R. Ahlrichs; Theor. Chem. Acc. 97, 119 (1997).

================================================================================
                                        WARNINGS
                       Please study these warnings very carefully!
================================================================================


WARNING: Geometry Optimization
  ===> : Switching off AutoStart
         For restart on a previous wavefunction, please use MOREAD

================================================================================
                                       INPUT FILE
================================================================================
NAME = double_ring_nn2.50.inp
|  1> ! BP86 def2-SVP def2/J RI Opt TightSCF D3BJ
|  2> ! SlowConv
|  3> 
|  4> %pal nprocs 8 end
|  5> %maxcore 2500
|  6> 
|  7> %geom
|  8>   MaxIter 300
|  9> end
| 10> 
| 11> * xyz 0 1
| 12> B     -1.25000000     -0.00000000      0.00000000
| 13> B     -2.81250000      2.70632939      0.00000000
| 14> B     -5.93750000      2.70632939      0.00000000
| 15> B     -7.50000000      0.00000000      0.00000000
| 16> B     -5.93750000     -2.70632939      0.00000000
| 17> B     -2.81250000     -2.70632939      0.00000000
| 18> B      7.50000000     -0.00000000      0.00000000
| 19> B      5.93750000      2.70632939      0.00000000
| 20> B      2.81250000      2.70632939      0.00000000
| 21> B      1.25000000      0.00000000      0.00000000
| 22> B      2.81250000     -2.70632939      0.00000000
| 23> B      5.93750000     -2.70632939      0.00000000
| 24> *
| 25> 
| 26>                          ****END OF INPUT****
================================================================================

                       *****************************
                       * Geometry Optimization Run *
                       *****************************

Geometry optimization settings:
Update method            Update   .... BFGS
Choice of coordinates    CoordSys .... (2022) Redundant Internals
Initial Hessian          InHess   .... Almloef's Model
Max. no of cycles        MaxIter  .... 300

Convergence Tolerances:
Energy Change            TolE     ....  5.0000e-06 Eh
Max. Gradient            TolMAXG  ....  3.0000e-04 Eh/bohr
RMS Gradient             TolRMSG  ....  1.0000e-04 Eh/bohr
Max. Displacement        TolMAXD  ....  4.0000e-03 bohr
RMS Displacement         TolRMSD  ....  2.0000e-03 bohr
Strict Convergence                .... False

------------------------------------------------------------------------------
                        ORCA OPTIMIZATION COORDINATE SETUP
------------------------------------------------------------------------------

The optimization will be done in redundant internal coordinates (2022)
Making redundant internal coordinates   ...  (2022 redundants) done
Evaluating the initial hessian          ...  (Almloef) done
Evaluating the coordinates              ...  done
Calculating the B-matrix                .... done
Calculating the G-matrix                .... done
The number of degrees of freedom        ....   49

    -----------------------------------------------------------------
                    Redundant Internal Coordinates


    -----------------------------------------------------------------
         Definition                    Initial Value    Approx d2E/dq
    -----------------------------------------------------------------
      1. B(B   1,B   0)                  3.1250         0.010000   
      2. B(B   2,B   1)                  3.1250         0.010000   
      3. B(B   3,B   2)                  3.1250         0.010000   
      4. B(B   4,B   3)                  3.1250         0.010000   
      5. B(B   5,B   4)                  3.1250         0.010000   
      6. B(B   5,B   0)                  3.1250         0.010000   
      7. B(B   7,B   6)                  3.1250         0.010000   
      8. B(B   8,B   7)                  3.1250         0.010000   
      9. B(B   9,B   8)                  3.1250         0.010000   
     10. B(B   9,B   0)                  2.5000         0.014205   
     11. B(B  10,B   9)                  3.1250         0.010000   
     12. B(B  11,B   6)                  3.1250         0.010000   
     13. B(B  11,B  10)                  3.1250         0.010000   
     14. A(B   5,B   0,B   9)          120.0000         0.127754   
     15. A(B   1,B   0,B   9)          120.0000         0.127754   
     16. A(B   1,B   0,B   5)          120.0000         0.112048   
     17. A(B   0,B   1,B   2)          120.0000         0.112048   
     18. A(B   1,B   2,B   3)          120.0000         0.112048   
     19. A(B   2,B   3,B   4)          120.0000         0.112048   
     20. A(B   3,B   4,B   5)          120.0000         0.112048   
     21. A(B   0,B   5,B   4)          120.0000         0.112048   
     22. A(B   7,B   6,B  11)          120.0000         0.112048   
     23. A(B   6,B   7,B   8)          120.0000         0.112048   
     24. A(B   7,B   8,B   9)          120.0000         0.112048   
     25. A(B   0,B   9,B   8)          120.0000         0.127754   
     26. A(B   8,B   9,B  10)          120.0000         0.112048   
     27. A(B   0,B   9,B  10)          120.0000         0.127754   
     28. A(B   9,B  10,B  11)          120.0000         0.112048   
     29. A(B   6,B  11,B  10)          120.0000         0.112048   
     30. D(B   2,B   1,B   0,B   5)      0.0000         0.010000   
     31. D(B   2,B   1,B   0,B   9)    180.0000         0.010000   
     32. D(B   3,B   2,B   1,B   0)      0.0000         0.010000   
     33. D(B   4,B   3,B   2,B   1)      0.0000         0.010000   
     34. D(B   5,B   4,B   3,B   2)      0.0000         0.010000   
     35. D(B   4,B   5,B   0,B   1)      0.0000         0.010000   
     36. D(B   4,B   5,B   0,B   9)    180.0000         0.010000   
     37. D(B   0,B   5,B   4,B   3)      0.0000         0.010000   
     38. D(B   8,B   7,B   6,B  11)      0.0000         0.010000   
     39. D(B   9,B   8,B   7,B   6)      0.0000         0.010000   
     40. D(B  10,B   9,B   0,B   5)      0.0000         0.010000   
     41. D(B  10,B   9,B   0,B   1)    180.0000         0.010000   
     42. D(B   8,B   9,B   0,B   5)    180.0000         0.010000   
     43. D(B   0,B   9,B   8,B   7)    180.0000         0.010000   
     44. D(B   8,B   9,B   0,B   1)      0.0000         0.010000   
     45. D(B  10,B   9,B   8,B   7)      0.0000         0.010000   
     46. D(B  11,B  10,B   9,B   8)      0.0000         0.010000   
     47. D(B  11,B  10,B   9,B   0)    180.0000         0.010000   
     48. D(B   6,B  11,B  10,B   9)      0.0000         0.010000   
     49. D(B  10,B  11,B   6,B   7)      0.0000         0.010000   
    -----------------------------------------------------------------

Number of atoms                         .... 12
Number of degrees of freedom            .... 49


         *************************************************************
         *                GEOMETRY OPTIMIZATION CYCLE   1            *
         *************************************************************
---------------------------------
CARTESIAN COORDINATES (ANGSTROEM)
---------------------------------
  B     -1.250000   -0.000000    0.000000
  B     -2.812500    2.706329    0.000000
  B     -5.937500    2.706329    0.000000
  B     -7.500000    0.000000    0.000000
  B     -5.937500   -2.706329    0.000000
  B     -2.812500   -2.706329    0.000000
  B      7.500000   -0.000000    0.000000
  B      5.937500    2.706329    0.000000
  B      2.812500    2.706329    0.000000
  B      1.250000    0.000000    0.000000
  B      2.812500   -2.706329    0.000000
  B      5.937500   -2.706329    0.000000

----------------------------
CARTESIAN COORDINATES (A.U.)
----------------------------
  NO LB      ZA    FRAG     MASS         X           Y           Z
   0 B     5.0000    0    10.810   -2.362158   -0.000000    0.000000
   1 B     5.0000    0    10.810   -5.314855    5.114221    0.000000
   2 B     5.0000    0    10.810  -11.220249    5.114221    0.000000
   3 B     5.0000    0    10.810  -14.172946    0.000000    0.000000
   4 B     5.0000    0    10.810  -11.220249   -5.114221    0.000000
   5 B     5.0000    0    10.810   -5.314855   -5.114221    0.000000
   6 B     5.0000    0    10.810   14.172946   -0.000000    0.000000
   7 B     5.0000    0    10.810   11.220249    5.114221    0.000000
   8 B     5.0000    0    10.810    5.314855    5.114221    0.000000
   9 B     5.0000    0    10.810    2.362158    0.000000    0.000000
  10 B     5.0000    0    10.810    5.314855   -5.114221    0.000000
  11 B     5.0000    0    10.810   11.220249   -5.114221    0.000000

--------------------------------
INTERNAL COORDINATES (ANGSTROEM)
--------------------------------
 B      0   0   0     0.000000000000     0.00000000     0.00000000
 B      1   0   0     3.125000002748     0.00000000     0.00000000
 B      2   1   0     3.125000000000   119.99999997     0.00000000
 B      3   2   1     3.125000002748   119.99999997     0.00000000
 B      4   3   2     3.125000002748   120.00000006     0.00000000
 B      5   4   3     3.125000000000   119.99999997     0.00000000
 B      1   2   3     8.750000000000   119.99999997   180.00000000
 B      7   1   2     3.125000002748    60.00000003     0.00000000
 B      8   7   1     3.125000000000   119.99999997     0.00000000
 B      1   2   3     2.500000000000   119.99999997   180.00000085
 B     10   1   2     3.125000002748   119.99999997   180.00000000
 B     11  10   1     3.125000000000   119.99999997   180.00000085

---------------------------
INTERNAL COORDINATES (A.U.)
---------------------------
 B      0   0   0     0.000000000000     0.00000000     0.00000000
 B      1   0   0     5.905394173698     0.00000000     0.00000000
 B      2   1   0     5.905394168504   119.99999997     0.00000000
 B      3   2   1     5.905394173698   119.99999997     0.00000000
 B      4   3   2     5.905394173698   120.00000006     0.00000000
 B      5   4   3     5.905394168504   119.99999997     0.00000000
 B      1   2   3    16.535103671811   119.99999997   180.00000000
 B      7   1   2     5.905394173698    60.00000003     0.00000000
 B      8   7   1     5.905394168504   119.99999997     0.00000000
 B      1   2   3     4.724315334803   119.99999997   180.00000085
 B     10   1   2     5.905394173698   119.99999997   180.00000000
 B     11  10   1     5.905394168504   119.99999997   180.00000085

---------------------
BASIS SET INFORMATION
---------------------
There are 1 groups of distinct atoms

 Group   1 Type B   : 7s4p1d contracted to 3s2p1d pattern {511/31/1}

Atom   0B    basis set group =>   1
Atom   1B    basis set group =>   1
Atom   2B    basis set group =>   1
Atom   3B    basis set group =>   1
Atom   4B    basis set group =>   1
Atom   5B    basis set group =>   1
Atom   6B    basis set group =>   1
Atom   7B    basis set group =>   1
Atom   8B    basis set group =>   1
Atom   9B    basis set group =>   1
Atom  10B    basis set group =>   1
Atom  11B    basis set group =>   1
---------------------------------
AUXILIARY/J BASIS SET INFORMATION
---------------------------------
There are 1 groups of distinct atoms

 Group   1 Type B   : 12s5p4d2f1g contracted to 6s4p3d1f1g pattern {711111/2111/211/2/1}

Atom   0B    basis set group =>   1
Atom   1B    basis set group =>   1
Atom   2B    basis set group =>   1
Atom   3B    basis set group =>   1
Atom   4B    basis set group =>   1
Atom   5B    basis set group =>   1
Atom   6B    basis set group =>   1
Atom   7B    basis set group =>   1
Atom   8B    basis set group =>   1
Atom   9B    basis set group =>   1
Atom  10B    basis set group =>   1
Atom  11B    basis set group =>   1


           ************************************************************
           *        Program running with 8 parallel MPI-processes     *
           *              working on a common directory               *
           ************************************************************
------------------------------------------------------------------------------
                             ORCA STARTUP CALCULATIONS
                           -- RI-GTO INTEGRALS CHOSEN --
------------------------------------------------------------------------------
------------------------------------------------------------------------------
                   ___                                                        
                  /   \      - P O W E R E D   B Y -                         
                 /     \                                                     
                 |  |  |   _    _      __       _____    __    __             
                 |  |  |  | |  | |    /  \     |  _  \  |  |  /  |          
                  \  \/   | |  | |   /    \    | | | |  |  | /  /          
                 / \  \   | |__| |  /  /\  \   | |_| |  |  |/  /          
                |  |  |   |  __  | /  /__\  \  |    /   |      \           
                |  |  |   | |  | | |   __   |  |    \   |  |\   \          
                \     /   | |  | | |  |  |  |  | |\  \  |  | \   \       
                 \___/    |_|  |_| |__|  |__|  |_| \__\ |__|  \__/        
                                                                              
                      - O R C A' S   B I G   F R I E N D -                    
                                      &                                       
                       - I N T E G R A L  F E E D E R -                       
                                                                              
 v1 FN, 2020, v2 2021, v3 2022-2024                                           
------------------------------------------------------------------------------


----------------------
SHARK INTEGRAL PACKAGE
----------------------

Number of atoms                             ...     12
Number of basis functions                   ...    168
Number of shells                            ...     72
Maximum angular momentum                    ...      2
Integral batch strategy                     ... SHARK/LIBINT Hybrid
RI-J (if used) integral strategy            ... SPLIT-RIJ (Revised 2003 algorithm where possible)
Printlevel                                  ...      1
Contraction scheme used                     ... SEGMENTED contraction
Prescreening option                         ... SCHWARTZ
   Thresh                                   ... 2.500e-11
   Tcut                                     ... 2.500e-12
   Tpresel                                  ... 2.500e-12 
Coulomb Range Separation                    ... NOT USED
Exchange Range Separation                   ... NOT USED
Multipole approximations                    ... NOT USED
Finite Nucleus Model                        ... NOT USED
CABS basis                                  ... NOT available
Auxiliary Coulomb fitting basis             ... AVAILABLE
   # of basis functions in Aux-J            ...    588
   # of shells in Aux-J                     ...    180
   Maximum angular momentum in Aux-J        ...      4
Auxiliary J/K fitting basis                 ... NOT available
Auxiliary Correlation fitting basis         ... NOT available
Auxiliary 'external' fitting basis          ... NOT available

Checking pre-screening integrals            ... done (  0.0 sec) Dimension = 72
   => SHARK Basis and OBASIS are compatible. Storing Pre-screening
Shell pair information
Shell pair cut-off parameter TPreSel        ...   2.5e-12
Total number of shell pairs                 ...      2628
Shell pairs after pre-screening             ...      1789
Total number of primitive shell pairs       ...     10596
Primitive shell pairs kept                  ...      4448
          la=0 lb=0:    440 shell pairs
          la=1 lb=0:    628 shell pairs
          la=1 lb=1:    240 shell pairs
          la=2 lb=0:    242 shell pairs
          la=2 lb=1:    196 shell pairs
          la=2 lb=2:     43 shell pairs

Checking whether 4 symmetric matrices of dimension 168 fit in memory
:Max Core in MB      =   2500.00
 MB in use           =      5.63
 MB left             =   2494.37
 MB needed           =      0.43
 Data fit in memory  = YES
Calculating RI/J V-Matrix + Cholesky decomp.... done (  0.0 sec)
Calculating Nuclear repulsion               ... done (  0.0 sec) ENN=    152.123396599869 Eh

Diagonalization of the overlap matrix:
Smallest eigenvalue                        ... 2.786e-02
Time for diagonalization                   ...    0.006 sec
Threshold for overlap eigenvalues          ... 1.000e-07
Number of eigenvalues below threshold      ... 0
Time for construction of square roots      ...    0.010 sec
Total time needed                          ...    0.041 sec

-------------------
DFT GRID GENERATION
-------------------

General Integration Accuracy     IntAcc      ... 4.388
Radial Grid Type                 RadialGrid  ... OptM3 with GC (2021)
Angular Grid (max. ang.)         AngularGrid ... 4 (Lebedev-302)
Angular grid pruning method      GridPruning ... 4 (adaptive)
Weight generation scheme         WeightScheme... mBecke (2022)
Basis function cutoff            BFCut       ... 1.0000e-11
Integration weight cutoff        WCut        ... 1.0000e-14
Partially contracted basis set               ... off
Rotationally invariant grid construction     ... off
Angular grids for H and He will be reduced by one unit

Total number of grid points                  ...    73444
Total number of batches                      ...     1154
Average number of points per batch           ...       63
Average number of grid points per atom       ...     6120
Grids setup in   0.8 sec
Initializing property integral containers    ... done (  0.0 sec)

SHARK setup successfully completed in   0.9 seconds

Maximum memory used throughout the entire STARTUP-calculation: 18.8 MB


           ************************************************************
           *        Program running with 8 parallel MPI-processes     *
           *              working on a common directory               *
           ************************************************************
-------------------------------------------------------------------------------
                                 ORCA GUESS
                   Start orbitals & Density for SCF / CASSCF
-------------------------------------------------------------------------------

------------
SCF SETTINGS
------------
Hamiltonian:
 Density Functional     Method          .... DFT(GTOs)
 Exchange Functional    Exchange        .... B88
   X-Alpha parameter    XAlpha          ....  0.666667
   Becke's b parameter  XBeta           ....  0.004200
 Correlation Functional Correlation     .... P86
 LDA part of GGA corr.  LDAOpt          .... PW91-LDA
 Gradients option       PostSCFGGA      .... off
   NL short-range parameter             ....  4.400000
 RI-approximation to the Coulomb term is turned on
   Number of AuxJ basis functions       .... 588


General Settings:
 Integral files         IntName         .... double_ring_nn2.50
 Hartree-Fock type      HFTyp           .... RHF
 Total Charge           Charge          ....    0
 Multiplicity           Mult            ....    1
 Number of Electrons    NEL             ....   60
 Basis Dimension        Dim             ....  168
 Nuclear Repulsion      ENuc            ....    152.1233965999 Eh

Convergence Acceleration:
 AO-DIIS                CNVDIIS         .... on
   Start iteration      DIISMaxIt       ....     0
   Startup error        DIISStart       ....  0.200000
   # of expansion vecs  DIISMaxEq       ....     5
   Bias factor          DIISBfac        ....   1.050
   Max. coefficient     DIISMaxC        ....  10.000
 MO-DIIS                CNVKDIIS        .... off
 Trust-Rad. Augm. Hess. CNVTRAH         .... auto
   Auto Start mean grad. ratio tolernc. ....  1.125000
   Auto Start start iteration           ....    50
   Auto Start num. interpolation iter.  ....    10
   Max. Number of Micro iterations      ....    24
   Max. Number of Macro iterations      .... Maxiter - #DIIS iter
   Number of Davidson start vectors     ....     2
   Converg. threshold    (grad. norm)   ....   1.000e-05
   Grad. Scal. Fac. for Micro threshold ....   0.100
   Minimum threshold for Micro iter.    ....   1.000e-02
   NR start threshold (gradient norm)   ....   1.000e-04
   Initial trust radius                 ....   0.400
   Minimum AH scaling param. (alpha)    ....   1.000
   Maximum AH scaling param. (alpha)    .... 1000.000
   Quad. conv. algorithm                .... NR
   White noise on init. David. guess    .... on
   Maximum white noise                  ....   0.010
   Pseudo random numbers                .... off
   Inactive MOs                         .... canonical
   Orbital update algorithm             .... Taylor
   Preconditioner                       .... Diag
   Full preconditioner red. dimension   ....   250
 SOSCF                 CNVSOSCF           .... on
   Start iteration     SOSCFMaxIt         ....   150
   Startup grad/error  SOSCFStart         ....  0.001000
   Hessian update      SOSCFHessUp        .... L-BFGS
   Autom. constraints  SOSCFAutoConstrain .... off
 Level Shifting         CNVShift        .... on
   Level shift para.    LevelShift      ....    0.2500
   Turn off err/grad.   ShiftErr        ....    0.0000
 Zerner damping         CNVZerner       .... off
 Static damping         CNVDamp         .... on
   Fraction old density DampFac         ....    0.8500
   Max. Damping (<1)    DampMax         ....    0.9800
   Min. Damping (>=0)   DampMin         ....    0.0000
   Turn off err/grad.   DampErr         ....    0.0300

SCF Procedure:
 Maximum # iterations   MaxIter         ....   125
 SCF integral mode      SCFMode         .... Direct
   Integral package                     .... SHARK and LIBINT hybrid scheme
 Reset frequency        DirectResetFreq ....    20
 Integral Threshold     Thresh          ....  2.500e-11 Eh
 Primitive CutOff       TCut            ....  2.500e-12 Eh

Convergence Tolerance:
 Convergence Check Mode ConvCheckMode   .... Total+1el-Energy
 Convergence forced     ConvForced      .... 0
 Energy Change          TolE            ....  1.000e-08 Eh
 1-El. energy change                    ....  1.000e-05 Eh
 Orbital Gradient       TolG            ....  1.000e-05
 Orbital Rotation angle TolX            ....  1.000e-05
 DIIS Error             TolErr          ....  5.000e-07

------------------------------
INITIAL GUESS: MODEL POTENTIAL
------------------------------
Loading Hartree-Fock densities                     ... done
Calculating cut-offs                               ... done
Initializing the effective Hamiltonian             ... done
Setting up the integral package (SHARK)            ... done
Starting the Coulomb interaction                   ... done (   0.0 sec)
Making the grid                                    ... done (   0.1 sec)
Mapping shells                                     ... done
Starting the XC term evaluation                    ... done (   0.0 sec)
  promolecular density results
     # of electrons  =     59.999868743
     EX              =    -44.226643632
     EC              =     -1.620932752
     EX+EC           =    -45.847576384
Transforming the Hamiltonian                       ... done (   0.0 sec)
Diagonalizing the Hamiltonian                      ... done (   0.0 sec)
Back transforming the eigenvectors                 ... done (   0.0 sec)
Now organizing SCF variables                       ... done
                      ------------------
                      INITIAL GUESS DONE (   0.2 sec)
                      ------------------
             **** ENERGY FILE WAS UPDATED (double_ring_nn2.50.en.tmp) ****
Finished Guess after   0.7 sec
Maximum memory used throughout the entire GUESS-calculation: 8.3 MB


           ************************************************************
           *        Program running with 8 parallel MPI-processes     *
           *              working on a common directory               *
           ************************************************************

-------------------------------------------------------------------------------------------
                                      ORCA LEAN-SCF
                              memory conserving SCF solver
-------------------------------------------------------------------------------------------

----------------------------------------D-I-I-S--------------------------------------------
Iteration    Energy (Eh)           Delta-E    RMSDP     MaxDP     DIISErr   Damp  Time(sec)
-------------------------------------------------------------------------------------------
               ***  Starting incremental Fock matrix formation  ***
    1    -295.1493309412657595     0.00e+00  1.16e-02  1.36e-01  1.33e-01  0.850   0.3
Warning: op=0 Small HOMO/LUMO gap (  -0.089) - skipping pre-diagonalization
         Will do a full diagonalization
    2    -295.4843538289369462    -3.35e-01  9.25e-03  1.11e-01  5.04e-02  0.850   0.2
                               ***Turning on AO-DIIS***
    3    -295.4204992540861667     6.39e-02  7.25e-03  7.12e-02  4.25e-02  0.850   0.2
    4    -295.2436049407021983     1.77e-01  5.92e-03  3.34e-02  7.00e-02  0.850   0.2
    5    -295.1115942060821453     1.32e-01  5.13e-03  2.34e-02  8.65e-02  0.850   0.2
    6    -295.0622433740388715     4.94e-02  4.69e-03  2.16e-02  1.05e-01  0.850   0.3
    7    -295.0683802435049756    -6.14e-03  4.46e-03  2.57e-02  1.08e-01  0.850   0.4
    8    -295.1026438956850484    -3.43e-02  4.99e-03  5.19e-02  1.08e-01  0.850   0.2
    9    -295.1865397845315897    -8.39e-02  6.76e-03  8.63e-02  1.03e-01  0.850   0.2
   10    -295.3685117685195678    -1.82e-01  5.91e-03  5.82e-02  6.60e-02  0.850   0.2
   11    -295.4636291385060645    -9.51e-02  4.73e-03  3.30e-02  3.71e-02  0.850   0.2
   12    -295.4919071308047478    -2.83e-02  4.14e-03  3.23e-02  3.57e-02  0.850   0.7
   13    -295.4965796433269816    -4.67e-03  3.86e-03  2.80e-02  4.34e-02  0.850   0.3
   14    -295.4953957575770573     1.18e-03  3.65e-03  3.10e-02  5.26e-02  0.850   0.2
   15    -295.4932446064048008     2.15e-03  3.26e-03  2.79e-02  5.56e-02  0.850   0.2
   16    -295.4915926803740831     1.65e-03  3.18e-03  2.68e-02  6.26e-02  0.850   0.2
   17    -295.5003647667143127    -8.77e-03  3.25e-03  2.52e-02  6.22e-02  0.850   0.4
   18    -295.5230734762202474    -2.27e-02  3.20e-03  2.10e-02  5.27e-02  0.850   0.3
   19    -295.5504393699152388    -2.74e-02  3.13e-03  2.12e-02  4.36e-02  0.850   0.3
   20    -295.5768318542283168    -2.64e-02  3.00e-03  1.91e-02  4.27e-02  0.850   0.2
               *** Restarting incremental Fock matrix formation ***
                             ****Resetting DIIS****
Warning: op=0 Small HOMO/LUMO gap (  -0.072) - skipping pre-diagonalization
         Will do a full diagonalization
   21    -295.5994589939283514    -2.26e-02  4.24e-03  3.55e-02  3.78e-02  0.850   0.3
   22    -295.6353547998434124    -3.59e-02  3.04e-03  2.19e-02  2.02e-02  0.850   0.3
   23    -295.6520931070314191    -1.67e-02  1.53e-02  1.18e-01  8.74e-03  0.000   0.2
   24    -295.5509018927731972     1.01e-01  2.96e-03  2.78e-02  6.11e-02  0.000   0.2
   25    -295.5874710907202143    -3.66e-02  2.90e-04  2.15e-03  5.45e-02  0.850   0.2
   26    -295.5911940869116279    -3.72e-03  4.83e-04  3.66e-03  5.37e-02  0.850   0.2
   27    -295.5970377947878660    -5.84e-03  6.20e-04  4.66e-03  5.23e-02  0.850   0.3
   28    -295.6038225201879754    -6.78e-03  3.58e-03  3.19e-02  5.06e-02  0.850   0.2
   29    -295.6590078597394040    -5.52e-02  2.69e-03  2.25e-02  3.40e-02  0.850   0.2
   30    -295.6875802580912591    -2.86e-02  2.18e-03  1.67e-02  2.13e-02  0.850   0.2
   31    -295.7002371579022224    -1.27e-02  1.18e-02  8.25e-02  1.03e-02  0.000   0.2
   32    -295.6218703559017058     7.84e-02  1.25e-03  9.27e-03  6.13e-02  0.000   0.2
   33    -295.6372060563959394    -1.53e-02  1.51e-04  1.17e-03  5.63e-02  0.850   0.2
   34    -295.6391160005157985    -1.91e-03  2.56e-04  1.93e-03  5.56e-02  0.850   0.2
   35    -295.6423343174827210    -3.22e-03  3.26e-04  2.37e-03  5.44e-02  0.850   0.2
   36    -295.6463179689487788    -3.98e-03  2.28e-03  1.98e-02  5.29e-02  0.850   0.3
   37    -295.6728705400401509    -2.66e-02  1.81e-03  1.42e-02  3.95e-02  0.850   0.2
   38    -295.6912751117919811    -1.84e-02  1.50e-03  1.11e-02  2.75e-02  0.850   0.3
   39    -295.7021009408271652    -1.08e-02  8.37e-03  6.22e-02  1.77e-02  0.000   0.6
   40    -295.6832608406236318     1.88e-02  8.32e-04  6.89e-03  3.12e-02  0.000   0.2
               *** Restarting incremental Fock matrix formation ***
                             ****Resetting DIIS****
Warning: op=0 Small HOMO/LUMO gap (  -0.070) - skipping pre-diagonalization
         Will do a full diagonalization
   41    -295.6890203281852791    -5.76e-03  4.25e-03  3.98e-02  2.85e-02  0.850   0.2
   42    -295.7075041406532137    -1.85e-02  1.98e-02  1.67e-01  4.10e-03  0.000   0.2
   43    -295.2657752726735225     4.42e-01  3.65e-03  4.03e-02  1.33e-01  0.000   0.2
   44    -295.3916745980354222    -1.26e-01  3.70e-04  3.47e-03  1.06e-01  0.850   0.2
   45    -295.4040284387784823    -1.24e-02  5.96e-04  5.15e-03  1.04e-01  0.850   0.2
   46    -295.4236392734501919    -1.96e-02  7.20e-04  6.11e-03  9.95e-02  0.850   0.3
   47    -295.4466898032380300    -2.31e-02  5.16e-03  2.78e-02  9.44e-02  0.850   0.3
   48    -295.5788777476324185    -1.32e-01  4.03e-03  2.58e-02  6.68e-02  0.850   0.4
   49    -295.6534503234920521    -7.46e-02  3.29e-03  2.32e-02  4.10e-02  0.850   0.3
   50    -295.6872582658382385    -3.38e-02  2.65e-03  1.99e-02  2.06e-02  0.850   0.2

       ******************************************************************************
       ***                                                                        ***
       ***                               Auto-TRAH                                ***
       ***                               ---------                                ***
       *** the maximum gradient error decreased on average only by a factor   1.1 ***
       *** during the last  10 iterations                                         ***
       ***                                                                        ***
       ***               Leaving SCF to start the TRAH-SCF procedure              ***
       ***                                                                        ***
       ******************************************************************************

 --------------------------------------------------------------------------------------------
   Iter.        energy            ||Error||_2        Shift      TRadius  Mac/Mic        Rej.
 --------------------------------------------------------------------------------------------
    0       -295.555253352199     8.753897e-01                     0.400 (TRAH MAcro)   No
WARNING: 119 diagonal Hessian elements are negative!
WARNING : negative HOMO - LUMO gap : -0.222833
WARNING : negative HOMO - LUMO gap : -0.222833
    0     dE    -1.715827e-01     2.856429e-01    -3.0311e-01      0.364 (TRAH MIcro)
    0     dE    -1.902141e-01     2.031080e-01    -4.9164e-01      0.400 (TRAH MIcro)
    0     dE    -1.990949e-01     7.901357e-02    -7.8408e-01      0.400 (TRAH MIcro)
    0     dE    -1.887059e-01     3.994464e-02    -9.7491e-01      0.362 (TRAH MIcro)
    0     dE    -2.039576e-01     3.334002e-02    -9.8464e-01      0.398 (TRAH MIcro)
    0     dE    -2.050787e-01     5.462492e-03    -9.8874e-01      0.400 (TRAH MIcro)
    1       -295.706026085774     1.298923e-01                     0.400 (TRAH MAcro)   No
WARNING: 16 diagonal Hessian elements are negative!
WARNING : negative HOMO - LUMO gap : -0.012683
WARNING : negative HOMO - LUMO gap : -0.012683
    1     dE    -3.105930e-03     1.194613e-01    -6.1821e-03      0.069 (TRAH MIcro)
    1     dE    -4.460020e-03     9.687453e-02    -8.8339e-03      0.099 (TRAH MIcro)
    1     dE    -7.959722e-03     6.735655e-02    -1.5189e-02      0.219 (TRAH MIcro)
    1     dE    -8.742920e-03     3.007629e-02    -1.6488e-02      0.246 (TRAH MIcro)
    1     dE    -8.932031e-03     1.691373e-02    -1.6776e-02      0.255 (TRAH MIcro)
    1     dE    -8.959653e-03     1.609219e-02    -1.6819e-02      0.256 (TRAH MIcro)
    1     dE    -9.151267e-03     8.263802e-03    -1.7084e-02      0.267 (TRAH MIcro)
    2       -295.714999974602     3.358057e-02                     0.480 (TRAH MAcro)   No
WARNING: 10 diagonal Hessian elements are negative!
WARNING : negative HOMO - LUMO gap : -0.012175
WARNING : negative HOMO - LUMO gap : -0.012175
    2     dE    -1.525007e-04     1.547777e-02    -3.0495e-04      0.013 (TRAH MIcro)
    2     dE    -2.653026e-04     1.591356e-02    -5.2996e-04      0.035 (TRAH MIcro)
    2     dE    -2.922734e-04     1.659494e-02    -5.8342e-04      0.044 (TRAH MIcro)
    2     dE    -4.073256e-04     1.572674e-02    -8.0774e-04      0.093 (TRAH MIcro)
    2     dE    -4.661408e-04     8.129352e-03    -9.1944e-04      0.118 (TRAH MIcro)
    2     dE    -4.761809e-04     2.900175e-03    -9.3826e-04      0.123 (TRAH MIcro)
    3       -295.715454791182     6.160091e-03                     0.576 (TRAH MAcro)   No
WARNING: 11 diagonal Hessian elements are negative!
WARNING : negative HOMO - LUMO gap : -0.010604
WARNING : negative HOMO - LUMO gap : -0.010604
    3     dE    -5.620745e-06     3.682006e-03    -1.1241e-05      0.003 (TRAH MIcro)
    3     dE    -8.599247e-06     3.006579e-03    -1.7198e-05      0.005 (TRAH MIcro)
    3     dE    -1.003117e-05     3.404188e-03    -2.0061e-05      0.007 (TRAH MIcro)
    3     dE    -1.691193e-05     2.174609e-03    -3.3815e-05      0.016 (TRAH MIcro)
    3     dE    -1.747163e-05     1.628872e-03    -3.4933e-05      0.017 (TRAH MIcro)
    3     dE    -1.772056e-05     1.294109e-03    -3.5430e-05      0.018 (TRAH MIcro)
    3     dE    -1.781501e-05     1.133256e-03    -3.5619e-05      0.018 (TRAH MIcro)
    3     dE    -1.796032e-05     8.351212e-04    -3.5909e-05      0.018 (TRAH MIcro)
    3     dE    -1.810778e-05     2.762485e-04    -3.6203e-05      0.018 (TRAH MIcro)
    4       -295.715472958303     2.854256e-04                     0.691 (TRAH MAcro)   No
WARNING: 11 diagonal Hessian elements are negative!
WARNING : negative HOMO - LUMO gap : -0.010806
WARNING : negative HOMO - LUMO gap : -0.010806
    4     dE    -9.312509e-03     2.737451e-02    -3.9093e-02      0.690 (TRAH MIcro)
    4     dE    -9.599747e-03     1.647970e-02    -4.0172e-02      0.691 (TRAH MIcro)
    4     dE    -9.637585e-03     8.793464e-03    -4.0330e-02      0.691 (TRAH MIcro)
    4     dE    -9.647473e-03     5.186284e-03    -4.0370e-02      0.691 (TRAH MIcro)
    4     dE    -9.649654e-03     4.113071e-03    -4.0379e-02      0.691 (TRAH MIcro)
    4     dE    -9.651987e-03     2.038948e-03    -4.0391e-02      0.691 (TRAH MIcro)
    4     dE    -9.652768e-03     1.276343e-03    -4.0393e-02      0.691 (TRAH MIcro)
    4     dE    -9.652971e-03     7.528578e-04    -4.0393e-02      0.691 (TRAH MIcro)
    4     dE    -9.653006e-03     5.487351e-04    -4.0394e-02      0.691 (TRAH MIcro)
    4     dE    -9.653075e-03     3.828435e-04    -4.0394e-02      0.691 (TRAH MIcro)
    4     dE    -9.653061e-03     1.927178e-04    -4.0394e-02      0.691 (TRAH MIcro)
    4     dE    -9.653099e-03     1.295855e-04    -4.0394e-02      0.691 (TRAH MIcro)
    4     dE    -9.653089e-03     3.065784e-05    -4.0394e-02      0.691 (TRAH MIcro)
    4     dE    -9.653110e-03     1.378836e-05    -4.0394e-02      0.691 (TRAH MIcro)
    5       -295.720665754039     1.204623e-01                     0.691 (TRAH MAcro)   No
WARNING: 13 diagonal Hessian elements are negative!
WARNING : negative HOMO - LUMO gap : -0.022061
WARNING : negative HOMO - LUMO gap : -0.022061
    5     dE    -2.645086e-03     5.000510e-02    -5.2699e-03      0.062 (TRAH MIcro)
    5     dE    -2.932706e-03     4.819372e-02    -5.8333e-03      0.074 (TRAH MIcro)
    5     dE    -3.330555e-03     4.521253e-02    -6.5915e-03      0.103 (TRAH MIcro)
    5     dE    -4.678478e-03     6.673032e-02    -8.6661e-03      0.282 (TRAH MIcro)
    5     dE    -5.305068e-03     6.373558e-02    -9.3902e-03      0.360 (TRAH MIcro)
    5     dE    -6.310910e-03     8.712713e-02    -1.0528e-02      0.446 (TRAH MIcro)
    5     dE    -7.374962e-03     1.152579e-01    -1.1542e-02      0.527 (TRAH MIcro)
    5     dE    -1.589663e-02     1.395834e-01    -4.3418e-02      0.691 (TRAH MIcro)
    5     dE    -2.180259e-02     1.218870e-01    -6.5087e-02      0.691 (TRAH MIcro)
    5     dE    -2.445975e-02     8.210883e-02    -7.5067e-02      0.691 (TRAH MIcro)
    5     dE    -1.425416e-02     2.323423e-02    -9.0278e-02      0.448 (TRAH MIcro)
    5     dE    -2.167461e-02     1.144419e-02    -9.2198e-02      0.596 (TRAH MIcro)
    5     dE    -2.013093e-02     7.428058e-03    -9.2568e-02      0.566 (TRAH MIcro)
 ---------------------------------
          TRAH Step control 
 ---------------------------------
  predicted energy change =    -2.013093291098e-02
  actual energy  change   =     1.371996535840e-02
  energy change ratio     = -0.681536
  old trust radius        = 0.691200
  new trust radius        = 0.463104
  reject step?            = YES
    6       -295.706945788681     1.204623e-01                     0.463 (TRAH MAcro)  Yes
    7       -295.706945788681     3.810074e-01                     0.463 (TRAH MAcro)   No
WARNING: 42 diagonal Hessian elements are negative!
WARNING : negative HOMO - LUMO gap : -0.072240
WARNING : negative HOMO - LUMO gap : -0.072240
    7     dE    -2.039147e-02     7.487146e-02    -4.0256e-02      0.114 (TRAH MIcro)
    7     dE    -2.088400e-02     6.027057e-02    -4.1106e-02      0.127 (TRAH MIcro)
    7     dE    -2.642020e-02     5.594367e-02    -4.3815e-02      0.454 (TRAH MIcro)
    7     dE    -2.588750e-02     7.041032e-02    -4.4784e-02      0.395 (TRAH MIcro)
    7     dE    -2.572177e-02     7.766157e-02    -4.5426e-02      0.364 (TRAH MIcro)
    7     dE    -2.924373e-02     7.471964e-02    -5.4937e-02      0.463 (TRAH MIcro)
    7     dE    -3.093647e-02     5.454237e-02    -6.5053e-02      0.463 (TRAH MIcro)
    7     dE    -3.168505e-02     6.930602e-02    -6.6582e-02      0.463 (TRAH MIcro)
    7     dE    -3.196035e-02     7.019674e-02    -6.9952e-02      0.463 (TRAH MIcro)
    7     dE    -3.300350e-02     7.071843e-02    -7.8680e-02      0.463 (TRAH MIcro)
    7     dE    -3.295527e-02     5.797104e-02    -1.0705e-01      0.405 (TRAH MIcro)
    7     dE    -3.827401e-02     8.185396e-02    -1.2242e-01      0.463 (TRAH MIcro)
    7     dE    -3.064988e-02     2.443982e-02    -1.7682e-01      0.301 (TRAH MIcro)
    7     dE    -3.320737e-02     2.121794e-02    -1.7852e-01      0.340 (TRAH MIcro)
    7     dE    -3.471103e-02     2.061045e-02    -1.7928e-01      0.362 (TRAH MIcro)
    7     dE    -3.582595e-02     1.427556e-02    -1.8035e-01      0.376 (TRAH MIcro)
    7     dE    -3.602817e-02     1.056615e-02    -1.8070e-01      0.378 (TRAH MIcro)
    7     dE    -3.611768e-02     7.144200e-03    -1.8085e-01      0.378 (TRAH MIcro)
    8       -295.730882087300     9.357721e-02                     0.463 (TRAH MAcro)   No
WARNING: 12 diagonal Hessian elements are negative!
WARNING : negative HOMO - LUMO gap : -0.012701
WARNING : negative HOMO - LUMO gap : -0.012701
    8     dE    -1.335592e-03     3.522053e-02    -2.6685e-03      0.032 (TRAH MIcro)
    8     dE    -1.650034e-03     4.847757e-02    -3.2836e-03      0.071 (TRAH MIcro)
    8     dE    -4.289050e-03     5.765191e-02    -7.5343e-03      0.372 (TRAH MIcro)
    8     dE    -4.719073e-03     5.186795e-02    -8.0583e-03      0.414 (TRAH MIcro)
    8     dE    -5.315792e-03     3.000858e-02    -9.6890e-03      0.463 (TRAH MIcro)
    8     dE    -5.538405e-03     2.618625e-02    -1.0510e-02      0.463 (TRAH MIcro)
    8     dE    -7.068852e-03     7.326750e-02    -1.3550e-02      0.463 (TRAH MIcro)
    8     dE    -8.321821e-03     3.365877e-02    -2.6071e-02      0.463 (TRAH MIcro)
    8     dE    -8.880411e-03     6.194798e-02    -2.7048e-02      0.463 (TRAH MIcro)
    8     dE    -9.762567e-03     2.829566e-02    -3.6285e-02      0.463 (TRAH MIcro)
    8     dE    -1.008567e-02     2.010554e-02    -3.7404e-02      0.463 (TRAH MIcro)
    8     dE    -1.015495e-02     1.642531e-02    -3.7749e-02      0.463 (TRAH MIcro)
    8     dE    -1.026251e-02     1.105769e-02    -3.7726e-02      0.463 (TRAH MIcro)
    8     dE    -1.028866e-02     5.295658e-03    -3.7779e-02      0.463 (TRAH MIcro)
    9       -295.738279034473     5.314282e-02                     0.463 (TRAH MAcro)   No
WARNING: 5 diagonal Hessian elements are negative!
WARNING : negative HOMO - LUMO gap : -0.007246
WARNING : negative HOMO - LUMO gap : -0.007246
    9     dE    -4.610128e-04     3.013450e-02    -9.2157e-04      0.022 (TRAH MIcro)
    9     dE    -1.078523e-03     5.584737e-02    -2.0958e-03      0.171 (TRAH MIcro)
    9     dE    -2.649212e-03     6.490119e-02    -4.5241e-03      0.414 (TRAH MIcro)
    9     dE    -3.499597e-03     3.731578e-02    -1.0677e-02      0.463 (TRAH MIcro)
    9     dE    -3.688119e-03     2.888971e-02    -1.2087e-02      0.463 (TRAH MIcro)
    9     dE    -3.784800e-03     3.022554e-02    -1.2306e-02      0.463 (TRAH MIcro)
    9     dE    -4.121950e-03     2.844086e-02    -1.2668e-02      0.463 (TRAH MIcro)
    9     dE    -4.199024e-03     2.510876e-02    -1.2657e-02      0.463 (TRAH MIcro)
    9     dE    -4.291464e-03     2.294610e-02    -1.2493e-02      0.463 (TRAH MIcro)
    9     dE    -4.500276e-03     3.150481e-02    -1.3029e-02      0.463 (TRAH MIcro)
    9     dE    -4.818939e-03     3.199172e-02    -1.4580e-02      0.463 (TRAH MIcro)
    9     dE    -4.877507e-03     3.078093e-02    -1.5219e-02      0.463 (TRAH MIcro)
    9     dE    -5.072219e-03     2.336266e-02    -1.7380e-02      0.463 (TRAH MIcro)
    9     dE    -5.138610e-03     1.727444e-02    -1.8194e-02      0.463 (TRAH MIcro)
    9     dE    -5.165352e-03     1.820201e-02    -1.8339e-02      0.463 (TRAH MIcro)
    9     dE    -5.204725e-03     1.926715e-02    -1.8518e-02      0.463 (TRAH MIcro)
    9     dE    -5.820035e-03     5.068908e-02    -2.5301e-02      0.463 (TRAH MIcro)
    9     dE    -4.782213e-03     1.361553e-02    -4.1276e-02      0.342 (TRAH MIcro)
    9     dE    -4.949746e-03     4.603348e-03    -4.1690e-02      0.350 (TRAH MIcro)
   10       -295.739636493446     9.894279e-02                     0.463 (TRAH MAcro)   No
WARNING: 11 diagonal Hessian elements are negative!
WARNING : negative HOMO - LUMO gap : -0.018013
WARNING : negative HOMO - LUMO gap : -0.018013
   10     dE    -1.894062e-03     2.613065e-02    -3.7803e-03      0.046 (TRAH MIcro)
   10     dE    -1.938839e-03     2.611885e-02    -3.8670e-03      0.052 (TRAH MIcro)
   10     dE    -2.030779e-03     2.195240e-02    -4.0481e-03      0.058 (TRAH MIcro)
   10     dE    -2.378749e-03     2.408646e-02    -4.6211e-03      0.172 (TRAH MIcro)
   10     dE    -2.434018e-03     2.233616e-02    -4.6966e-03      0.191 (TRAH MIcro)
   10     dE    -2.557540e-03     2.182362e-02    -4.8479e-03      0.235 (TRAH MIcro)
   10     dE    -2.631655e-03     2.402381e-02    -4.9531e-03      0.250 (TRAH MIcro)
   10     dE    -2.851662e-03     3.340895e-02    -5.2777e-03      0.284 (TRAH MIcro)
   10     dE    -4.509116e-03     7.156781e-02    -1.3759e-02      0.451 (TRAH MIcro)
   10     dE    -5.756935e-03     5.807084e-02    -2.4855e-02      0.463 (TRAH MIcro)
   10     dE    -6.275430e-03     2.887545e-02    -3.0456e-02      0.463 (TRAH MIcro)
   10     dE    -3.377690e-03     1.880216e-02    -4.2586e-02      0.209 (TRAH MIcro)
   10     dE    -3.575734e-03     1.888257e-02    -4.3567e-02      0.222 (TRAH MIcro)
   10     dE    -3.629250e-03     1.723016e-02    -4.3871e-02      0.225 (TRAH MIcro)
   10     dE    -3.718825e-03     2.377261e-02    -4.4908e-02      0.225 (TRAH MIcro)
   10     dE    -7.230392e-03     7.609460e-02    -3.6128e-02      0.463 (TRAH MIcro)
   10     dE    -1.020695e-02     5.724572e-02    -6.6366e-02      0.463 (TRAH MIcro)
   10     dE    -3.085063e-03     6.095961e-03    -1.0720e-01      0.126 (TRAH MIcro)
   11       -295.742193319407     1.415083e-02                     0.556 (TRAH MAcro)   No
WARNING : small    HOMO - LUMO gap : 0.000334
WARNING : small    HOMO - LUMO gap : 0.000334
   11     dE    -1.107039e-04     1.616988e-02    -2.2126e-04      0.026 (TRAH MIcro)
   11     dE    -6.796963e-04     3.817015e-02    -1.3073e-03      0.200 (TRAH MIcro)
   11     dE    -1.111642e-03     2.855828e-02    -2.0207e-03      0.317 (TRAH MIcro)
   11     dE    -1.306375e-03     1.293225e-02    -2.3139e-03      0.359 (TRAH MIcro)
   11     dE    -1.319793e-03     1.078892e-02    -2.3321e-03      0.363 (TRAH MIcro)
   11     dE    -1.334132e-03     8.170310e-03    -2.3502e-03      0.368 (TRAH MIcro)
   11     dE    -1.340516e-03     6.601903e-03    -2.3598e-03      0.369 (TRAH MIcro)
   11     dE    -1.345281e-03     4.522875e-03    -2.3681e-03      0.369 (TRAH MIcro)
   11     dE    -1.348015e-03     2.653257e-03    -2.3726e-03      0.369 (TRAH MIcro)
   11     dE    -1.348595e-03     1.498537e-03    -2.3741e-03      0.369 (TRAH MIcro)
   11     dE    -1.348822e-03     8.220002e-04    -2.3746e-03      0.369 (TRAH MIcro)
   12       -295.743043180378     4.033952e-02                     0.556 (TRAH MAcro)   No
WARNING: 4 diagonal Hessian elements are negative!
WARNING : negative HOMO - LUMO gap : -0.003780
WARNING : negative HOMO - LUMO gap : -0.003780
   12     dE    -3.200194e-04     1.651235e-02    -6.3961e-04      0.026 (TRAH MIcro)
   12     dE    -3.646655e-04     8.994686e-03    -7.2869e-04      0.030 (TRAH MIcro)
   12     dE    -3.790682e-04     4.350582e-03    -7.5738e-04      0.032 (TRAH MIcro)
   12     dE    -3.897126e-04     4.831318e-03    -7.7846e-04      0.035 (TRAH MIcro)
   12     dE    -3.934437e-04     4.159852e-03    -7.8578e-04      0.038 (TRAH MIcro)
   12     dE    -3.968470e-04     2.839661e-03    -7.9239e-04      0.041 (TRAH MIcro)
   13       -295.743431077826     3.203334e-03                     0.667 (TRAH MAcro)   No
WARNING : small    HOMO - LUMO gap : 0.001234
WARNING : small    HOMO - LUMO gap : 0.001234
   13     dE    -6.669862e-06     4.297242e-03    -1.3339e-05      0.007 (TRAH MIcro)
   13     dE    -3.730425e-05     7.845632e-03    -7.4430e-05      0.049 (TRAH MIcro)
   13     dE    -5.721372e-05     3.147870e-03    -1.1374e-04      0.078 (TRAH MIcro)
   13     dE    -5.802878e-05     2.540416e-03    -1.1534e-04      0.079 (TRAH MIcro)
   13     dE    -5.887627e-05     1.658908e-03    -1.1700e-04      0.080 (TRAH MIcro)
   13     dE    -5.906685e-05     1.441534e-03    -1.1738e-04      0.080 (TRAH MIcro)
   13     dE    -5.935343e-05     1.062008e-03    -1.1795e-04      0.080 (TRAH MIcro)
   13     dE    -5.954668e-05     6.131148e-04    -1.1833e-04      0.080 (TRAH MIcro)
   13     dE    -5.960926e-05     3.318224e-04    -1.1846e-04      0.080 (TRAH MIcro)
   13     dE    -5.962768e-05     1.632358e-04    -1.1850e-04      0.080 (TRAH MIcro)
   14       -295.743487052354     4.463463e-03                     0.800 (TRAH MAcro)   No
WARNING : small    HOMO - LUMO gap : 0.001229
WARNING : small    HOMO - LUMO gap : 0.001229
   14     dE    -4.735501e-06     1.698198e-03    -9.4709e-06      0.003 (TRAH MIcro)
   14     dE    -5.166107e-06     8.763813e-04    -1.0332e-05      0.003 (TRAH MIcro)
   14     dE    -5.332838e-06     2.746529e-04    -1.0666e-05      0.004 (TRAH MIcro)
   15       -295.743492380038     2.774461e-04                     0.960 (TRAH MAcro)   No
WARNING : small    HOMO - LUMO gap : 0.001314
WARNING : small    HOMO - LUMO gap : 0.001314
   15     dE    -5.259681e-08     3.897782e-04    -1.0519e-07      0.001 (TRAH MIcro)
   15     dE    -1.245347e-07     3.482319e-04    -2.4907e-07      0.003 (TRAH MIcro)
   15     dE    -1.455334e-07     2.365313e-04    -2.9106e-07      0.003 (TRAH MIcro)
   15     dE    -1.539571e-07     1.293229e-04    -3.0791e-07      0.004 (TRAH MIcro)
   15     dE    -1.549130e-07     1.140819e-04    -3.0982e-07      0.004 (TRAH MIcro)
   15     dE    -1.569568e-07     6.711706e-05    -3.1391e-07      0.004 (TRAH MIcro)
   15     dE    -1.573142e-07     5.094059e-05    -3.1462e-07      0.004 (TRAH MIcro)
   15     dE    -1.577637e-07     1.851517e-05    -3.1552e-07      0.004 (TRAH MIcro)
   16       -295.743492537782     2.553072e-05                           (NR   MAcro)
WARNING : small    HOMO - LUMO gap : 0.001318
   16     dE    -7.964397e-11     1.783847e-05                           (NR   MIcro)
   16     dE    -1.100937e-10     1.300218e-05                           (NR   MIcro)
   16     dE    -1.236177e-10     1.046130e-05                           (NR   MIcro)
   16     dE    -1.377332e-10     7.022597e-06                           (NR   MIcro)
   16     dE    -1.430194e-10     4.669671e-06                           (NR   MIcro)
   16     dE    -1.449860e-10     3.341839e-06                           (NR   MIcro)
   16     dE    -1.461899e-10     2.153024e-06                           (NR   MIcro)
   16     dE    -1.464264e-10     1.858063e-06                           (NR   MIcro)
   16     dE    -1.469022e-10     9.905229e-07                           (NR   MIcro)
   17       -295.743492537929     9.840490e-07                           (NR   MAcro)

               *****************************************************
               *                     SUCCESS                       *
               *           SCF CONVERGED AFTER 238 CYCLES          *
               *****************************************************

Warning: op=0 Small HOMO/LUMO gap (   0.001) - skipping pre-diagonalization
         Will do a full diagonalization
             **** ENERGY FILE WAS UPDATED (double_ring_nn2.50.en.tmp) ****

----------------
TOTAL SCF ENERGY
----------------

Total Energy       :       -295.74349253792923 Eh           -8047.58956 eV

Components:
Nuclear Repulsion  :        152.12339659986901 Eh            4139.48807 eV
Electronic Energy  :       -447.86688913779824 Eh          -12187.07763 eV
One Electron Energy:       -692.53494852251390 Eh          -18844.83400 eV
Two Electron Energy:        244.66805938471566 Eh            6657.75637 eV

Virial components:
Potential Energy   :       -588.26215237516271 Eh          -16007.42697 eV
Kinetic Energy     :        292.51865983723343 Eh            7959.83740 eV
Virial Ratio       :          2.01102436577034

DFT components:
N(Alpha)           :       29.999999571947 electrons
N(Beta)            :       29.999999571947 electrons
N(Total)           :       59.999999143894 electrons
E(X)               :      -44.483584671232 Eh       
E(C)               :       -1.655498414614 Eh       
E(XC)              :      -46.139083085846 Eh       

---------------
SCF CONVERGENCE
---------------

  Last Energy change         ...   -1.4745e-10  Tolerance :   1.0000e-08
  Last MAX-Density change    ...    1.1113e-01  Tolerance :   1.0000e-07
  Last RMS-Density change    ...    1.3939e-02  Tolerance :   5.0000e-09
  Last DIIS Error            ...    6.7013e-03  Tolerance :   5.0000e-07


----------------
ORBITAL ENERGIES
----------------

  NO   OCC          E(Eh)            E(eV) 
   0   2.0000      -6.657655      -181.1640 
   1   2.0000      -6.657645      -181.1637 
   2   2.0000      -6.657641      -181.1636 
   3   2.0000      -6.657635      -181.1635 
   4   2.0000      -6.655315      -181.1003 
   5   2.0000      -6.655315      -181.1003 
   6   2.0000      -6.651544      -180.9977 
   7   2.0000      -6.651544      -180.9977 
   8   2.0000      -6.651537      -180.9975 
   9   2.0000      -6.651536      -180.9975 
  10   2.0000      -6.632108      -180.4688 
  11   2.0000      -6.631970      -180.4651 
  12   2.0000      -0.377365       -10.2686 
  13   2.0000      -0.368943       -10.0395 
  14   2.0000      -0.364445        -9.9170 
  15   2.0000      -0.359092        -9.7714 
  16   2.0000      -0.358760        -9.7624 
  17   2.0000      -0.350623        -9.5409 
  18   2.0000      -0.338987        -9.2243 
  19   2.0000      -0.329579        -8.9683 
  20   2.0000      -0.329007        -8.9527 
  21   2.0000      -0.318472        -8.6661 
  22   2.0000      -0.313855        -8.5404 
  23   2.0000      -0.282734        -7.6936 
  24   2.0000      -0.180571        -4.9136 
  25   2.0000      -0.174612        -4.7514 
  26   2.0000      -0.173508        -4.7214 
  27   2.0000      -0.158287        -4.3072 
  28   2.0000      -0.158225        -4.3055 
  29   2.0000      -0.156639        -4.2624 
  30   0.0000      -0.056639        -1.5412 
  31   0.0000      -0.054909        -1.4941 
  32   0.0000      -0.054259        -1.4765 
  33   0.0000      -0.052790        -1.4365 
  34   0.0000      -0.049800        -1.3551 
  35   0.0000      -0.049449        -1.3456 
  36   0.0000      -0.046860        -1.2751 
  37   0.0000      -0.046822        -1.2741 
  38   0.0000      -0.044969        -1.2237 
  39   0.0000      -0.044652        -1.2150 
  40   0.0000      -0.038479        -1.0471 
*Only the first 10 virtual orbitals were printed.

                    ********************************
                    * MULLIKEN POPULATION ANALYSIS *
                    ********************************

-----------------------
MULLIKEN ATOMIC CHARGES
-----------------------
   0 B :   -0.075184
   1 B :    0.042225
   2 B :   -0.002479
   3 B :   -0.004308
   4 B :   -0.002479
   5 B :    0.042225
   6 B :   -0.004309
   7 B :   -0.002478
   8 B :    0.042224
   9 B :   -0.075183
  10 B :    0.042224
  11 B :   -0.002479
Sum of atomic charges:   -0.0000000

--------------------------------
MULLIKEN REDUCED ORBITAL CHARGES
--------------------------------
  0 B s       :     3.835010  s :     3.835010
      pz      :     0.000000  p :     1.236574
      px      :     0.685754
      py      :     0.550820
      dz2     :     0.000514  d :     0.003599
      dxz     :     0.000000
      dyz     :     0.000000
      dx2y2   :     0.002580
      dxy     :     0.000505

  1 B s       :     3.960487  s :     3.960487
      pz      :     0.000000  p :     0.996071
      px      :     0.595320
      py      :     0.400751
      dz2     :     0.000259  d :     0.001218
      dxz     :     0.000000
      dyz     :     0.000000
      dx2y2   :     0.000605
      dxy     :     0.000354

  2 B s       :     3.960706  s :     3.960706
      pz      :     0.000000  p :     1.040647
      px      :     0.603384
      py      :     0.437263
      dz2     :     0.000286  d :     0.001126
      dxz     :     0.000000
      dyz     :     0.000000
      dx2y2   :     0.000470
      dxy     :     0.000370

  3 B s       :     3.951021  s :     3.951021
      pz      :     0.000000  p :     1.052316
      px      :     0.330242
      py      :     0.722074
      dz2     :     0.000164  d :     0.000971
      dxz     :     0.000000
      dyz     :     0.000000
      dx2y2   :     0.000254
      dxy     :     0.000554

  4 B s       :     3.960706  s :     3.960706
      pz      :     0.000000  p :     1.040647
      px      :     0.603384
      py      :     0.437263
      dz2     :     0.000286  d :     0.001126
      dxz     :     0.000000
      dyz     :     0.000000
      dx2y2   :     0.000470
      dxy     :     0.000370

  5 B s       :     3.960487  s :     3.960487
      pz      :     0.000000  p :     0.996071
      px      :     0.595321
      py      :     0.400751
      dz2     :     0.000259  d :     0.001218
      dxz     :     0.000000
      dyz     :     0.000000
      dx2y2   :     0.000605
      dxy     :     0.000354

  6 B s       :     3.951021  s :     3.951021
      pz      :     0.000000  p :     1.052316
      px      :     0.330242
      py      :     0.722074
      dz2     :     0.000164  d :     0.000971
      dxz     :     0.000000
      dyz     :     0.000000
      dx2y2   :     0.000254
      dxy     :     0.000554

  7 B s       :     3.960706  s :     3.960706
      pz      :     0.000000  p :     1.040647
      px      :     0.603384
      py      :     0.437263
      dz2     :     0.000286  d :     0.001126
      dxz     :     0.000000
      dyz     :     0.000000
      dx2y2   :     0.000470
      dxy     :     0.000370

  8 B s       :     3.960487  s :     3.960487
      pz      :     0.000000  p :     0.996072
      px      :     0.595321
      py      :     0.400751
      dz2     :     0.000259  d :     0.001218
      dxz     :     0.000000
      dyz     :     0.000000
      dx2y2   :     0.000605
      dxy     :     0.000354

  9 B s       :     3.835010  s :     3.835010
      pz      :     0.000000  p :     1.236573
      px      :     0.685754
      py      :     0.550819
      dz2     :     0.000514  d :     0.003599
      dxz     :     0.000000
      dyz     :     0.000000
      dx2y2   :     0.002580
      dxy     :     0.000505

 10 B s       :     3.960487  s :     3.960487
      pz      :     0.000000  p :     0.996071
      px      :     0.595321
      py      :     0.400751
      dz2     :     0.000259  d :     0.001218
      dxz     :     0.000000
      dyz     :     0.000000
      dx2y2   :     0.000605
      dxy     :     0.000354

 11 B s       :     3.960706  s :     3.960706
      pz      :     0.000000  p :     1.040647
      px      :     0.603384
      py      :     0.437263
      dz2     :     0.000286  d :     0.001126
      dxz     :     0.000000
      dyz     :     0.000000
      dx2y2   :     0.000470
      dxy     :     0.000370



                     *******************************
                     * LOEWDIN POPULATION ANALYSIS *
                     *******************************

----------------------
LOEWDIN ATOMIC CHARGES
----------------------
   0 B :   -0.070237
   1 B :    0.039624
   2 B :   -0.007405
   3 B :    0.005798
   4 B :   -0.007404
   5 B :    0.039624
   6 B :    0.005798
   7 B :   -0.007404
   8 B :    0.039623
   9 B :   -0.070236
  10 B :    0.039624
  11 B :   -0.007404

-------------------------------
LOEWDIN REDUCED ORBITAL CHARGES
-------------------------------
  0 B s       :     3.700560  s :     3.700560
      pz      :     0.000000  p :     1.363125
      px      :     0.775283
      py      :     0.587842
      dz2     :     0.001166  d :     0.006552
      dxz     :     0.000000
      dyz     :     0.000000
      dx2y2   :     0.004657
      dxy     :     0.000729

  1 B s       :     3.916632  s :     3.916632
      pz      :     0.000000  p :     1.042030
      px      :     0.621569
      py      :     0.420461
      dz2     :     0.000402  d :     0.001714
      dxz     :     0.000000
      dyz     :     0.000000
      dx2y2   :     0.000810
      dxy     :     0.000502

  2 B s       :     3.915710  s :     3.915710
      pz      :     0.000000  p :     1.090081
      px      :     0.632245
      py      :     0.457836
      dz2     :     0.000438  d :     0.001614
      dxz     :     0.000000
      dyz     :     0.000000
      dx2y2   :     0.000650
      dxy     :     0.000526

  3 B s       :     3.900912  s :     3.900912
      pz      :     0.000000  p :     1.091865
      px      :     0.339822
      py      :     0.752043
      dz2     :     0.000271  d :     0.001425
      dxz     :     0.000000
      dyz     :     0.000000
      dx2y2   :     0.000375
      dxy     :     0.000779

  4 B s       :     3.915710  s :     3.915710
      pz      :     0.000000  p :     1.090081
      px      :     0.632245
      py      :     0.457836
      dz2     :     0.000438  d :     0.001614
      dxz     :     0.000000
      dyz     :     0.000000
      dx2y2   :     0.000650
      dxy     :     0.000526

  5 B s       :     3.916632  s :     3.916632
      pz      :     0.000000  p :     1.042030
      px      :     0.621569
      py      :     0.420461
      dz2     :     0.000402  d :     0.001714
      dxz     :     0.000000
      dyz     :     0.000000
      dx2y2   :     0.000810
      dxy     :     0.000502

  6 B s       :     3.900912  s :     3.900912
      pz      :     0.000000  p :     1.091865
      px      :     0.339822
      py      :     0.752043
      dz2     :     0.000271  d :     0.001425
      dxz     :     0.000000
      dyz     :     0.000000
      dx2y2   :     0.000375
      dxy     :     0.000779

  7 B s       :     3.915710  s :     3.915710
      pz      :     0.000000  p :     1.090081
      px      :     0.632245
      py      :     0.457836
      dz2     :     0.000438  d :     0.001614
      dxz     :     0.000000
      dyz     :     0.000000
      dx2y2   :     0.000650
      dxy     :     0.000526

  8 B s       :     3.916632  s :     3.916632
      pz      :     0.000000  p :     1.042031
      px      :     0.621569
      py      :     0.420461
      dz2     :     0.000402  d :     0.001714
      dxz     :     0.000000
      dyz     :     0.000000
      dx2y2   :     0.000810
      dxy     :     0.000502

  9 B s       :     3.700560  s :     3.700560
      pz      :     0.000000  p :     1.363125
      px      :     0.775283
      py      :     0.587842
      dz2     :     0.001166  d :     0.006552
      dxz     :     0.000000
      dyz     :     0.000000
      dx2y2   :     0.004657
      dxy     :     0.000729

 10 B s       :     3.916632  s :     3.916632
      pz      :     0.000000  p :     1.042030
      px      :     0.621569
      py      :     0.420461
      dz2     :     0.000402  d :     0.001714
      dxz     :     0.000000
      dyz     :     0.000000
      dx2y2   :     0.000810
      dxy     :     0.000502

 11 B s       :     3.915710  s :     3.915710
      pz      :     0.000000  p :     1.090081
      px      :     0.632245
      py      :     0.457836
      dz2     :     0.000438  d :     0.001614
      dxz     :     0.000000
      dyz     :     0.000000
      dx2y2   :     0.000650
      dxy     :     0.000526



                      *****************************
                      * MAYER POPULATION ANALYSIS *
                      *****************************

  NA   - Mulliken gross atomic population
  ZA   - Total nuclear charge
  QA   - Mulliken gross atomic charge
  VA   - Mayer's total valence
  BVA  - Mayer's bonded valence
  FA   - Mayer's free valence

  ATOM       NA         ZA         QA         VA         BVA        FA
  0 B      5.0752     5.0000    -0.0752     1.9610     1.9610     0.0000
  1 B      4.9578     5.0000     0.0422     1.5214     1.5214    -0.0000
  2 B      5.0025     5.0000    -0.0025     1.5876     1.5876    -0.0000
  3 B      5.0043     5.0000    -0.0043     1.5635     1.5635     0.0000
  4 B      5.0025     5.0000    -0.0025     1.5876     1.5876    -0.0000
  5 B      4.9578     5.0000     0.0422     1.5214     1.5214    -0.0000
  6 B      5.0043     5.0000    -0.0043     1.5635     1.5635    -0.0000
  7 B      5.0025     5.0000    -0.0025     1.5876     1.5876    -0.0000
  8 B      4.9578     5.0000     0.0422     1.5214     1.5214    -0.0000
  9 B      5.0752     5.0000    -0.0752     1.9610     1.9610     0.0000
 10 B      4.9578     5.0000     0.0422     1.5214     1.5214    -0.0000
 11 B      5.0025     5.0000    -0.0025     1.5876     1.5876     0.0000

  Mayer bond orders larger than 0.100000
B(  0-B ,  1-B ) :   0.3810 B(  0-B ,  5-B ) :   0.3810 B(  0-B ,  8-B ) :   0.1284 
B(  0-B ,  9-B ) :   0.7320 B(  0-B , 10-B ) :   0.1284 B(  1-B ,  2-B ) :   0.3766 
B(  1-B ,  3-B ) :   0.1592 B(  1-B ,  4-B ) :   0.1724 B(  1-B ,  5-B ) :   0.1023 
B(  1-B ,  9-B ) :   0.1284 B(  2-B ,  3-B ) :   0.4924 B(  2-B ,  4-B ) :   0.3346 
B(  2-B ,  5-B ) :   0.1724 B(  3-B ,  4-B ) :   0.4924 B(  3-B ,  5-B ) :   0.1592 
B(  4-B ,  5-B ) :   0.3766 B(  5-B ,  9-B ) :   0.1284 B(  6-B ,  7-B ) :   0.4924 
B(  6-B ,  8-B ) :   0.1592 B(  6-B , 10-B ) :   0.1592 B(  6-B , 11-B ) :   0.4924 
B(  7-B ,  8-B ) :   0.3766 B(  7-B , 10-B ) :   0.1724 B(  7-B , 11-B ) :   0.3346 
B(  8-B ,  9-B ) :   0.3810 B(  8-B , 10-B ) :   0.1023 B(  8-B , 11-B ) :   0.1724 
B(  9-B , 10-B ) :   0.3810 B( 10-B , 11-B ) :   0.3766 

-------
TIMINGS
-------

Total SCF time: 0 days 0 hours 0 min 47 sec 

Total time                  ....      47.083 sec
Sum of individual times     ....      41.933 sec  ( 89.1%)

SCF preparation             ....       0.627 sec  (  1.3%)
Fock matrix formation       ....      34.605 sec  ( 73.5%)
  Startup                   ....       0.076 sec  (  0.2% of F)
  Split-RI-J                ....      16.463 sec  ( 47.6% of F)
  XC integration            ....      16.414 sec  ( 47.4% of F)
    XC Preparation          ....       0.000 sec  (  0.0% of XC)
    Basis function eval.    ....       2.159 sec  ( 13.2% of XC)
    Density eval.           ....       1.095 sec  (  6.7% of XC)
    XC-Functional eval.     ....       0.441 sec  (  2.7% of XC)
    XC-Potential eval.      ....       1.265 sec  (  7.7% of XC)
Diagonalization             ....       0.000 sec  (  0.0%)
Density matrix formation    ....       1.307 sec  (  2.8%)
Total Energy calculation    ....       0.305 sec  (  0.6%)
Population analysis         ....       0.229 sec  (  0.5%)
Orbital Transformation      ....       2.723 sec  (  5.8%)
Orbital Orthonormalization  ....       0.000 sec  (  0.0%)
DIIS solution               ....       2.126 sec  (  4.5%)
SOSCF solution              ....       0.000 sec  (  0.0%)
NR solution                 ....       0.009 sec  (  0.0%)
Finished LeanSCF after  47.1 sec

Maximum memory used throughout the entire LEANSCF-calculation: 8.9 MB


-------------------------------------------------------------------------------
                          DFT DISPERSION CORRECTION                            
                                                                               
                              DFTD3 V3.1  Rev 1                                
                          USING Becke-Johnson damping                          
-------------------------------------------------------------------------------
The BP86 functional is recognized
[...]
      dz2     :     0.002867  d :     0.033064
      dxz     :     0.005612
      dyz     :     0.002219
      dx2y2   :     0.011605
      dxy     :     0.010761

  7 B s       :     3.313568  s :     3.313568
      pz      :     0.468398  p :     1.826693
      px      :     0.751811
      py      :     0.606484
      dz2     :     0.002644  d :     0.038978
      dxz     :     0.003627
      dyz     :     0.006764
      dx2y2   :     0.012824
      dxy     :     0.013119

  8 B s       :     3.017014  s :     3.017014
      pz      :     0.531103  p :     1.570579
      px      :     0.506591
      py      :     0.532885
      dz2     :     0.003612  d :     0.049668
      dxz     :     0.007893
      dyz     :     0.007016
      dx2y2   :     0.016305
      dxy     :     0.014841

  9 B s       :     3.366716  s :     3.366716
      pz      :     0.545685  p :     1.477272
      px      :     0.372861
      py      :     0.558726
      dz2     :     0.002899  d :     0.030767
      dxz     :     0.002707
      dyz     :     0.002179
      dx2y2   :     0.011094
      dxy     :     0.011888

 10 B s       :     3.397260  s :     3.397260
      pz      :     0.404613  p :     1.870828
      px      :     0.788917
      py      :     0.677298
      dz2     :     0.003257  d :     0.045359
      dxz     :     0.004948
      dyz     :     0.006691
      dx2y2   :     0.014159
      dxy     :     0.016304

 11 B s       :     3.084736  s :     3.084736
      pz      :     0.537669  p :     1.604550
      px      :     0.572460
      py      :     0.494421
      dz2     :     0.003069  d :     0.041144
      dxz     :     0.005799
      dyz     :     0.006340
      dx2y2   :     0.011414
      dxy     :     0.014522



                     *******************************
                     * LOEWDIN POPULATION ANALYSIS *
                     *******************************

----------------------
LOEWDIN ATOMIC CHARGES
----------------------
   0 B :   -0.094985
   1 B :    0.062684
   2 B :    0.007910
   3 B :    0.043365
   4 B :   -0.018679
   5 B :   -0.000308
   6 B :    0.043400
   7 B :    0.007858
   8 B :    0.062780
   9 B :   -0.095003
  10 B :   -0.000309
  11 B :   -0.018715

-------------------------------
LOEWDIN REDUCED ORBITAL CHARGES
-------------------------------
  0 B s       :     2.760032  s :     2.760032
      pz      :     0.551650  p :     2.246551
      px      :     1.009300
      py      :     0.685601
      dz2     :     0.010648  d :     0.088402
      dxz     :     0.006463
      dyz     :     0.003171
      dx2y2   :     0.033392
      dxy     :     0.034728

  1 B s       :     2.748647  s :     2.748647
      pz      :     0.494337  p :     2.062144
      px      :     0.632020
      py      :     0.935787
      dz2     :     0.013217  d :     0.126525
      dxz     :     0.012260
      dyz     :     0.013131
      dx2y2   :     0.046502
      dxy     :     0.041415

  2 B s       :     2.849271  s :     2.849271
      pz      :     0.468488  p :     2.044938
      px      :     0.910526
      py      :     0.665924
      dz2     :     0.011319  d :     0.097880
      dxz     :     0.006710
      dyz     :     0.010379
      dx2y2   :     0.031649
      dxy     :     0.037824

  3 B s       :     2.888474  s :     2.888474
      pz      :     0.456141  p :     1.987618
      px      :     0.661052
      py      :     0.870424
      dz2     :     0.008865  d :     0.080543
      dxz     :     0.010158
      dyz     :     0.004043
      dx2y2   :     0.031470
      dxy     :     0.026007

  4 B s       :     2.751874  s :     2.751874
      pz      :     0.512724  p :     2.154753
      px      :     0.747118
      py      :     0.894911
      dz2     :     0.012980  d :     0.112052
      dxz     :     0.008638
      dyz     :     0.012065
      dx2y2   :     0.035484
      dxy     :     0.042885

  5 B s       :     2.805603  s :     2.805603
      pz      :     0.408091  p :     2.087091
      px      :     0.887802
      py      :     0.791198
      dz2     :     0.012217  d :     0.107614
      dxz     :     0.010290
      dyz     :     0.011263
      dx2y2   :     0.033644
      dxy     :     0.040200

  6 B s       :     2.888500  s :     2.888500
      pz      :     0.456107  p :     1.987562
      px      :     0.661344
      py      :     0.870110
      dz2     :     0.008864  d :     0.080538
      dxz     :     0.010147
      dyz     :     0.004053
      dx2y2   :     0.031490
      dxy     :     0.025983

  7 B s       :     2.849266  s :     2.849266
      pz      :     0.468532  p :     2.044994
      px      :     0.910250
      py      :     0.666212
      dz2     :     0.011319  d :     0.097881
      dxz     :     0.006715
      dyz     :     0.010371
      dx2y2   :     0.031658
      dxy     :     0.037818

  8 B s       :     2.748765  s :     2.748765
      pz      :     0.494251  p :     2.061981
      px      :     0.631991
      py      :     0.935740
      dz2     :     0.013213  d :     0.126473
      dxz     :     0.012248
      dyz     :     0.013134
      dx2y2   :     0.046508
      dxy     :     0.041369

  9 B s       :     2.760016  s :     2.760016
      pz      :     0.551693  p :     2.246592
      px      :     1.009303
      py      :     0.685596
      dz2     :     0.010646  d :     0.088395
      dxz     :     0.006458
      dyz     :     0.003170
      dx2y2   :     0.033437
      dxy     :     0.034684

 10 B s       :     2.805652  s :     2.805652
      pz      :     0.408120  p :     2.087054
      px      :     0.887478
      py      :     0.791456
      dz2     :     0.012216  d :     0.107603
      dxz     :     0.010290
      dyz     :     0.011260
      dx2y2   :     0.033655
      dxy     :     0.040181

 11 B s       :     2.751866  s :     2.751866
      pz      :     0.512747  p :     2.154807
      px      :     0.746910
      py      :     0.895150
      dz2     :     0.012980  d :     0.112043
      dxz     :     0.008635
      dyz     :     0.012067
      dx2y2   :     0.035489
      dxy     :     0.042871



                      *****************************
                      * MAYER POPULATION ANALYSIS *
                      *****************************

  NA   - Mulliken gross atomic population
  ZA   - Total nuclear charge
  QA   - Mulliken gross atomic charge
  VA   - Mayer's total valence
  BVA  - Mayer's bonded valence
  FA   - Mayer's free valence

  ATOM       NA         ZA         QA         VA         BVA        FA
  0 B      4.8746     5.0000     0.1254     2.6747     2.6747    -0.0000
  1 B      4.6372     5.0000     0.3628     3.1748     3.1748    -0.0000
  2 B      5.1792     5.0000    -0.1792     3.2318     3.2318     0.0000
  3 B      5.2649     5.0000    -0.2649     3.0265     3.0265    -0.0000
  4 B      4.7307     5.0000     0.2693     3.1843     3.1843    -0.0000
  5 B      5.3133     5.0000    -0.3133     3.0071     3.0071    -0.0000
  6 B      5.2650     5.0000    -0.2650     3.0263     3.0263    -0.0000
  7 B      5.1792     5.0000    -0.1792     3.2319     3.2319     0.0000
  8 B      4.6373     5.0000     0.3627     3.1749     3.1749     0.0000
  9 B      4.8748     5.0000     0.1252     2.6752     2.6752    -0.0000
 10 B      5.3134     5.0000    -0.3134     3.0066     3.0066     0.0000
 11 B      4.7304     5.0000     0.2696     3.1839     3.1839    -0.0000

  Mayer bond orders larger than 0.100000
B(  0-B ,  1-B ) :   0.5271 B(  0-B ,  5-B ) :   1.1603 B(  0-B ,  9-B ) :   0.6916 
B(  1-B ,  2-B ) :   1.1816 B(  1-B ,  3-B ) :   0.2712 B(  1-B ,  4-B ) :   0.4353 
B(  1-B ,  5-B ) :   0.5958 B(  2-B ,  3-B ) :   1.3411 B(  2-B ,  4-B ) :   0.5102 
B(  2-B ,  5-B ) :   0.1180 B(  3-B ,  4-B ) :   1.1000 B(  4-B ,  5-B ) :   1.0093 
B(  6-B ,  7-B ) :   1.3411 B(  6-B ,  8-B ) :   0.2713 B(  6-B , 11-B ) :   1.0999 
B(  7-B ,  8-B ) :   1.1817 B(  7-B , 10-B ) :   0.1181 B(  7-B , 11-B ) :   0.5103 
B(  8-B ,  9-B ) :   0.5273 B(  8-B , 10-B ) :   0.5960 B(  8-B , 11-B ) :   0.4353 
B(  9-B , 10-B ) :   1.1600 B( 10-B , 11-B ) :   1.0090 

-------
TIMINGS
-------

Total SCF time: 0 days 0 hours 0 min 3 sec 

Total time                  ....       3.401 sec
Sum of individual times     ....       3.118 sec  ( 91.7%)

SCF preparation             ....       0.634 sec  ( 18.7%)
Fock matrix formation       ....       1.910 sec  ( 56.2%)
  Startup                   ....       0.018 sec  (  1.0% of F)
  Split-RI-J                ....       0.719 sec  ( 37.7% of F)
  XC integration            ....       1.253 sec  ( 65.6% of F)
    XC Preparation          ....       0.000 sec  (  0.0% of XC)
    Basis function eval.    ....       0.381 sec  ( 30.4% of XC)
    Density eval.           ....       0.217 sec  ( 17.3% of XC)
    XC-Functional eval.     ....       0.049 sec  (  3.9% of XC)
    XC-Potential eval.      ....       0.254 sec  ( 20.3% of XC)
Diagonalization             ....       0.000 sec  (  0.0%)
Density matrix formation    ....       0.092 sec  (  2.7%)
Total Energy calculation    ....       0.025 sec  (  0.7%)
Population analysis         ....       0.221 sec  (  6.5%)
Orbital Transformation      ....       0.024 sec  (  0.7%)
Orbital Orthonormalization  ....       0.000 sec  (  0.0%)
DIIS solution               ....       0.021 sec  (  0.6%)
SOSCF solution              ....       0.192 sec  (  5.6%)
Finished LeanSCF after   3.7 sec

Maximum memory used throughout the entire LEANSCF-calculation: 14.7 MB


-------------------------------------------------------------------------------
                          DFT DISPERSION CORRECTION                            
                                                                               
                              DFTD3 V3.1  Rev 1                                
                          USING Becke-Johnson damping                          
-------------------------------------------------------------------------------
The BP86 functional is recognized
Active option DFTDOPT                   ...         4   

molecular C6(AA) [au] = 4917.681373 


            DFT-D V3
 parameters
 s6 scaling factor         :     1.0000 
 a1 scaling factor         :     0.3946 
 s8 scaling factor         :     3.2822 
 a2 scaling factor         :     4.8516 
 ad hoc parameters k1-k3   :    16.0000     1.3333    -4.0000 

 Edisp/kcal,au: -16.638198943010  -0.026514654927 
 E6   /kcal   :  -4.890444349 
 E8   /kcal   : -11.747754594 
 % E8         :  70.607129016 

-------------------------   ----------------
Dispersion correction           -0.026514655
-------------------------   ----------------


-------------------------   --------------------
FINAL SINGLE POINT ENERGY      -297.526301054206
-------------------------   --------------------

                                *** OPTIMIZATION RUN DONE ***



           ************************************************************
           *        Program running with 8 parallel MPI-processes     *
           *              working on a common directory               *
           ************************************************************

------------------------------------------------------------------------------
                              ORCA PROPERTY CALCULATIONS
------------------------------------------------------------------------------

GBWName                                 ... double_ring_nn2.50.gbw
Number of atoms                         ...     12
Number of basis functions               ...    168
Max core memory                         ...   2500 MB

Electric properties:
Dipole moment                           ... YES
Quadrupole moment                       ...  NO
Static polarizability (Dipole/Dipole)   ...  NO
Static polarizability (Dipole/Quad.)    ...  NO
Static polarizability (Quad./Quad.)     ...  NO
Static polarizability (Velocity)        ...  NO
Static hyperpolarizability              ...  NO

Atomic electric properties:
Dipole moment                           ...  NO
Quadrupole moment                       ...  NO
Static polarizability                   ...  NO

Choice of electric origin               ... Center of mass
Position of electric origin             ...     0.000000    -0.000000     0.000000

General magnetic properties:
Magnetizability                         ...  NO

EPR properties:
g-Tensor (aka g-matrix)                 ...  NO
Zero-Field splitting spin-orbit         ...  NO
Zero-field splitting spin-spin          ...  NO
Hyperfine couplings                     ...  NO (   0 nuclei)
Quadrupole couplings                    ...  NO (   0 nuclei)
Contact density                         ...  NO (   0 nuclei)

NMR properties:
Chemical shifts                         ...  NO (   0 nuclei)
Spin-rotation constants                 ...  NO (   0 nuclei)
Spin-spin couplings                     ...  NO (   0 nuclei,    0 pairs)

Choice of magnetic origin               ... GIAO
Position of magnetic origin             ...     0.000000     0.000000     0.000000

Properties with geometric perturbations:
SCF Hessian                             ...  NO
IR spectrum                             ...  NO
VCD spectrum                            ...  NO
X-ray spectroscopy properties:
SCF XES/XAS/RIXS spectra                ...  NO

SCF SOC stabilization energy            ...  NO
Diagonal Born-Oppenheimer correction    ...  NO

-------------
DIPOLE MOMENT
-------------

Method             : SCF
Type of density    : Electron Density
Multiplicity       :   1
Irrep              :   0
Energy             :  -297.4997863992787188 Eh
Basis              : AO
                                X                 Y                 Z
Electronic contribution:     -0.000073438       0.601889624      -0.000389651
Nuclear contribution   :      0.000000000      -0.000000000       0.000000000
                        -----------------------------------------
Total Dipole Moment    :     -0.000073438       0.601889624      -0.000389651
                        -----------------------------------------
Magnitude (a.u.)       :      0.601889754
Magnitude (Debye)      :      1.529882174



--------------------
Rotational spectrum 
--------------------
 
Rotational constants in cm-1:             0.095478             0.019027             0.015865 
Rotational constants in MHz :          2862.367201           570.413966           475.630153 

Dipole components along the rotational axes: 
x,y,z [a.u.] :     0.000355     0.601890    -0.000140 
x,y,z [Debye]:     0.000901     1.529882    -0.000357 

 

Dipole moment calculation done in   0.1 sec 

Maximum memory used throughout the entire PROP-calculation: 11.0 MB

--------------------------------
SUGGESTED CITATIONS FOR THIS RUN
--------------------------------

Below you find a list of papers that are relevant to this ORCA run
We neither can nor want to force you to cite these papers, but we appreciate if you do
You receive ORCA, which is the product of decades of hard work by many enthusiastic individuals, for free
The only thing we kindly ask in return is that you cite our papers,
We deeply appreciate it, if you show your appreciation for ORCA by not just citing the generic ORCA reference.

Please note that relegating all ORCA citations to the supporting information does *not* help us.
SI sections are not indexed - citations you put there will not count into any citation statistics
But we need these citations in order to attract the funding resources that allow us to do what we are doing

Therefore, if you are a happy ORCA user, please consider citing a few of the papers listed below in the main body of your paper

In addition to the list printed below, the program has created the file double_ring_nn2.50.bibtex that contains the list in bibtex format
You can import this file easily into all common literature databanks and citation aid programs

It goes without saying that in many instances, there are alternative algorithms to achieve similar
results as the ones you have gotten from ORCA. It is, of course, also the case that in some instances
ORCA just re-implements algorithms worked out by others. We are fully aware of that and we are also
fully appreciative of our colleagues work. Hence this citation list should not be read as indicating
that the listed papers, which are focused on our own work, are the only ones worth citing. It simply
meant to make it easier for users to cite ORCA specific papers. It is not a substitute for doing your
own literature research and citing the relevant literature in a scientifically appropriate manner.

List of essential papers. We consider these as the minimum necessary citations

  1. Neese, F.
     Software update: the ORCA program system, version 6.0
     WIRES Comput. Molec. Sci. 2025 15(1), e70019
     doi.org/10.1002/wcms.70019

List of papers to cite with high priority. The work reported in these papers was absolutely
necessary for this run to complete.
Our perspective: the developers of density functionals and basis sets usually get cited in chemistry papers
Good! But without the algorithms to do something with them, the functionals or basis sets would not do anything.
Hence, in our opinion, the algorithm design and method developments papers are equally worthy of getting cited

  1. Neese, F.
     An improvement of the resolution of the identity approximation for the formation of the Coulomb matrix
     J. Comp. Chem. 2003 24(14), 1740-1747
     doi.org/10.1002/jcc.10318
  2. Grimme, S.; Antony, J.; Ehrlich, S.; Krieg, H.
     A consistent and accurate ab initio parametrization of density functional dispersion correction (DFT-D) for the 94 elements H-Pu
     J. Chem. Phys. 2010 132 , 154104
     doi.org/10.1063/1.3382344
  3. Grimme, S.; Ehrlich, S.; Goerigk, L.
     Effect of the damping function in dispersion corrected density functional theory
     J. Comput. Chem. 2011 32(7), 1456-1465
     doi.org/10.1002/jcc.21759
  4. Helmich-Paris, B.
     A trust-region augmented Hessian implementation for restricted and unrestricted Hartree–Fock and Kohn–Sham methods
     J. Chem. Phys. 2021 154 , 164104
     doi.org/10.1063/5.0040798
  5. Neese, F.
     The SHARK Integral Generation and Digestion System
     J. Comp. Chem. 2022 44(3), 381
     doi.org/10.1002/jcc.26942

List of suggested additional citations. These are papers that are important in the 'surrounding' of 
of this run, or papers that preceded the highly important papers. If you like your results we are grateful for a citation.

  1. Neese, F.
     The ORCA program system
     WIRES Comput. Molec. Sci. 2012 2(1), 73-78
     doi.org/10.1002/wcms.81
  2. Neese, F.
     Software update: the ORCA program system, version 4.0
     WIRES Comput. Molec. Sci. 2018 8(1), 1-6
     doi.org/10.1002/wcms.1327
  3. Neese, F.; Wennmohs, F.; Becker, U.; Riplinger, C.
     The ORCA quantum chemistry program package
     J. Chem. Phys. 2020 152(22), 224108
     doi.org/10.1063/5.0004608
  4. Neese, F.
     Software update: The ORCA program system—Version 5.0
     WIRES Comput. Molec. Sci. 2022 12(1), e1606
     doi.org/10.1002/wcms.1606

List of optional additional citations

  1. Neese, F.
     Approximate second-order SCF convergence for spin unrestricted wavefunctions
     Chem. Phys. Lett. 2000 325(1-3), 93-98
     doi.org/10.1016/s0009-2614(00)00662-x

Timings for individual modules:

Sum of individual times          ...      955.960 sec (=  15.933 min)
Startup calculation              ...      132.397 sec (=   2.207 min)  13.8 %
SCF iterations                   ...      654.010 sec (=  10.900 min)  68.4 %
Property calculations            ...        0.753 sec (=   0.013 min)   0.1 %
SCF Gradient evaluation          ...      168.219 sec (=   2.804 min)  17.6 %
Geometry relaxation              ...        0.582 sec (=   0.010 min)   0.1 %
                             ****ORCA TERMINATED NORMALLY****
TOTAL RUN TIME: 0 days 0 hours 17 minutes 3 seconds 992 msec
