
                                 *****************
                                 * O   R   C   A *
                                 *****************

                                            #,                                       
                                            ###                                      
                                            ####                                     
                                            #####                                    
                                            ######                                   
                                           ########,                                 
                                     ,,################,,,,,                         
                               ,,#################################,,                 
                          ,,##########################################,,             
                       ,#########################################, ''#####,          
                    ,#############################################,,   '####,        
                  ,##################################################,,,,####,       
                ,###########''''           ''''###############################       
              ,#####''   ,,,,##########,,,,          '''####'''          '####       
            ,##' ,,,,###########################,,,                        '##       
           ' ,,###''''                  '''############,,,                           
         ,,##''                                '''############,,,,        ,,,,,,###''
      ,#''                                            '''#######################'''  
     '                                                          ''''####''''         
             ,#######,   #######,   ,#######,      ##                                
            ,#'     '#,  ##    ##  ,#'     '#,    #''#        ,####,    ,#,          
            ##       ##  ##   ,#'  ##            #'  '#       #'       ,# #          
            ##       ##  #######   ##           ,######,      #####,      #          
            '#,     ,#'  ##    ##  '#,     ,#' ,#      #,     #,   #      #          
             '#######'   ##     ##  '#######'  #'      '#     '####' #    #          



                #########################################################
                #                        -***-                          #
                #          Department of theory and spectroscopy        #
                #                                                       #
                #                      Frank Neese                      #
                #                                                       #
                #     Directorship, Architecture, Infrastructure        #
                #                    SHARK, DRIVERS                     #
                #        Core code/Algorithms in most modules           #
                #                                                       #
                #        Max Planck Institute fuer Kohlenforschung      #
                #                Kaiser Wilhelm Platz 1                 #
                #                 D-45470 Muelheim/Ruhr                 #
                #                      Germany                          #
                #                                                       #
                #                  All rights reserved                  #
                #                        -***-                          #
                #########################################################


                         Program Version 6.1.1  -  RELEASE   -
                                (GIT: $487d211c$)
                          ($2025-11-21 10:33:24 +0100$)
                                                                         
                                  - NO-DMRG VERSION -                    
                                                                         


 With contributions from (in alphabetic order):
[Max-Planck-Institut fuer Kohlenforschung]                               
  Daniel Aravena         : Magnetic Suceptibility                        
  Michael Atanasov       : Ab Initio Ligand Field Theory (pilot matlab implementation)
  Alexander A. Auer      : GIAO ZORA, VPT2 properties, NMR spectrum      
  Ute Becker             : All parallelization in ORCA, NUMFREQ, NUMCALC 
  Giovanni Bistoni       : ED, misc. LED, open-shell LED, HFLD           
  Dmytro Bykov           : pre 5.0 version of the SCF Hessian            
  Marcos Casanova-Páez   : Triplet and SCS-CIS(D). UHF-(DLPNO)-IP/EA/STEOM-CCSD. UHF-CVS-IP/STEOM-CCSD   
  Vijay G. Chilkuri      : MRCI spin determinant printing, contributions to CSF-ICE 
  Pauline Colinet        : FMM embedding                                 
  Dipayan Datta          : RHF DLPNO-CCSD density                        
  Achintya Kumar Dutta   : EOM-CC, STEOM-CC                              
  Nicolas Foglia         : Exact transition moments, OPA infrastructure, MCD improvements    
  Dmitry Ganyushin       : Spin-Orbit,Spin-Spin,Magnetic field MRCI      
  Miquel Garcia-Rates    : C-PCM and meta-GGA Hessian, CCSD/C-PCM, Gaussian charge scheme 
  Tiago L. C. Gouveia    : GS-ROHF, GS-ROCIS                             
  Yang Guo               : DLPNO-NEVPT2, F12-NEVPT2, CIM, IAO-localization        
  Andreas Hansen         : Spin unrestricted coupled pair/coupled cluster methods 
  Ingolf Harden          : AUTO-CI MPn and infrastructure                
  Benjamin Helmich-Paris : MC-RPA, TRAH-(SCF,CASSCF), AVAS, COSX integrals, SCF dyn. polar., MC-PDFT, srDFT 
  Lee Huntington         : MR-EOM, pCC                                   
  Robert Izsak           : Overlap fitted RIJCOSX, COSX-SCS-MP3, EOM     
  Riya Kayal             : Wick's Theorem for AUTO-CI, AUTO-CI UHF-CCSDT 
  Emily Kempfer          : AUTO-CI RHF CISDT and CCSDT, approximate NEVPT4
  Christian Kollmar      : KDIIS, OOCD, Brueckner-CCSD(T), CCSD density, CASPT2, CASPT2-K, improved NEVPT2 
  Axel Koslowski         : Symmetry handling                             
  Simone Kossmann        : meta-GGA functionals, TD-DFT gradient, OOMP2, (MP2 Hessian; deprecated post 5.0) 
  Lucas Lang             : DCDCAS, Hyperfine gauge corrections, ICE-SOC+SSC
  Marvin Lechner         : AUTO-CI (C++ implementation), FIC-MRCC        
  Spencer Leger          : CASSCF response                               
  Dagmar Lenk            : GEPOL surface, SMD, ORCA-2-JSON               
  Dimitrios Liakos       : Extrapolation schemes; Compound Job, Property file
  Dimitrios Manganas     : Further ROCIS development; embedding schemes. LFT, Crystal Embedding 
  Dimitrios Pantazis     : SARC Basis sets                               
  Anastasios Papadopoulos: AUTO-CI, single reference methods and gradients 
  Taras Petrenko         : pre 6.0 DFT Hessian and TD-DFT gradient,  ECA, NRVS 
  Petra Pikulova         : Analytic Raman intensities                    
  Peter Pinski           : DLPNO-MP2, DLPNO-MP2 Gradient                 
  Shashank Vittal Rao    : ES-AILFT, MagRelax                            
  Christoph Reimann      : Effective Core Potentials                     
  Marius Retegan         : Local ZFS, SOC                                
  Christoph Riplinger    : Optimizer, TS searches, QM/MM, DLPNO-CCSD(T), (RO)-DLPNO pert. Triples 
  Michael Roemelt        : Original ROCIS implementation, recursive CI coupling coefficients
  Masaaki Saitow         : Open-shell DLPNO-CCSD energy and density      
  Barbara Sandhoefer     : DKH picture change effects                    
  Yorick L. A. Schmerwitz: GMF and freeze-and-release deltaSCF, NEB S-IDPP initial path                    
  Kantharuban Sivalingam : CASSCF convergence/infrastructure, NEVPT2, NEVPT3, NEVPT4(SD), FIC-MRCI and CEPA variants
  Bernardo de Souza      : ESD, SOC TD-DFT                               
  Georgi L. Stoychev     : AutoAux, RI-MP2 NMR, DLPNO-MP2 response, X2C  
  Van Anh Tran           : RI-MP2 g-tensors                              
  Willem Van den Heuvel  : Paramagnetic NMR                              
  Zikuan Wang            : NOTCH, Electric field optimization            
  Frank Wennmohs         : Technical directorship and infrastructure     
  Hang Xu                : AUTO-CI-Response properties                   
                                                                         
[FACCTs GmbH]                                                            
  Markus Bursch, Nicolas Foglia, Miquel Garcia-Rates, Ingolf Harden, Hagen Neugebauer, Anastasios Papadopoulos, 
  Christoph Riplinger, Bernardo de Souza, Georgi L. Stoychev                                                    
                                                                 
  APM, various basis sets, CI-OPT, improved COSX, DLPNO-Multilevel,           
  DOCKER, DRACO, updates on ESD, Fragmentator, GOAT, IRC, LR-CPCM, L-BFGS, MBIS, meta-GGA TD-DFT gradient, ML-optimized integration grids, 
  MM, NACMEs, nearIR, NEB, NEB-TS, NL-DFT gradient (VV10), 2- and 3-layer-ONIOM, interface openCOSMO-RS, QMMM,   
  Crystal-QMMM, RESP, rigid body optimization, SF, symmetry and pop. for TD-DFT, various functionals, SOLVATOR                                   
                                                                         
[Other institutions]                                                     
  V. Asgeirsson          : NEB                                           
  Christoph Bannwarth    : sTDA-DFT, sTD-DFT, PBEh-3c, B97-3c, D3        
  Giovanni Bistoni       : ETS/NOCV, ADLD/ADEX, COVALED                  
  Martin Brehm           : Molecular dynamics                            
  Ronald Cardenas        : ETS/NOCV                                      
  Martina Colucci        : COVALED                                       
  Sebastian Ehlert       : rSCAN, r2SCAN, r2SCAN-3c, D4, dhf basis sets  
  Marvin Friede          : D4 for Fr, Ra, Ac-Lr                          
  Lars Goerigk           : TD-DFT with DH, B97 family of functionals     
  Stefan Grimme          : VdW corrections, initial TS optimization, DFT functionals, gCP, sTDA/sTD-DF 
  Waldemar Hujo          : DFT-NL                                        
  H. Jonsson             : NEB                                           
  Holger Kruse           : gCP                                           
  Marcel Mueller         : wB97X-3c, vDZP basis set                      
  Hagen Neugebauer       : wr2SCAN, Native XTB                           
  Gianluca Regni         : ADLD/ADEX                                     
  Tobias Risthaus        : pre 6.0 range-separated hybrid DFT and stability analysis
  Lukas Wittmann         : regularized MP2, r2SCAN double-hybrids, wr2SCAN        
                                                                         
We gratefully acknowledge several colleagues who have allowed us to      
interface, adapt or use parts of their codes:                            
  Ed Valeev, F. Pavosevic, A. Kumar             : LibInt (2-el integral package), F12 methods 
  Garnet Chan, S. Sharma, J. Yang, R. Olivares  : DMRG                   
  Ulf Ekstrom                                   : XCFun DFT Library      
  Mihaly Kallay                                 : mrcc  (arbitrary order and MRCC methods)
  Frank Weinhold                                : gennbo (NPA and NBO analysis)           
  Simon Mueller                                 : openCOSMO-RS                            
  Christopher J. Cramer and Donald G. Truhlar   : smd solvation model                     
  S Lehtola, MJT Oliveira, MAL Marques          : LibXC Library                           
  Liviu Ungur et al                             : ANISO software                          


 Your calculation uses the libint2 library for the computation of 2-el integrals
 For citations please refer to: http://libint.valeyev.net

 Your ORCA version has been built with support for libXC version: 7.0.0
 For citations please refer to: https://libxc.gitlab.io

 This ORCA versions uses:
   CBLAS   interface :  Fast vector & matrix operations
   LAPACKE interface :  Fast linear algebra routines
   SCALAPACK package :  Parallel linear algebra routines
   Shared memory     :  Shared parallel matrices
   BLAS/LAPACK       :  OpenBLAS 0.3.29  USE64BITINT DYNAMIC_ARCH NO_AFFINITY Zen SINGLE_THREADED
        Core in use  :  Zen
   Copyright (c) 2011-2014, The OpenBLAS Project


  ***********************************
  * Starting time: Fri Apr 24 04:04:18 2026
  * Host name:     vmi3233575
  * Process ID:    1688076
  * Working dir.:  /root/b12_scan/jobs/trunc_tetrahedron_nn1.60
  ***********************************

NOTE: MaxCore=2500 MB was set to SCF,MP2,MDCI,CIPSI,MRCI,RASCI and CIS
      => If you want to overwrite this, your respective input block should be placed after the MaxCore statement
Your calculation utilizes the atom-pairwise dispersion correction
with the Becke-Johnson damping scheme (D3BJ)


================================================================================

----- Orbital basis set information -----
Your calculation utilizes the basis: def2-SVP
   F. Weigend and R. Ahlrichs, Phys. Chem. Chem. Phys. 7, 3297 (2005).

----- AuxJ basis set information -----
Your calculation utilizes the auxiliary basis: def2/J
   H-Rn: F. Weigend, Phys. Chem. Chem. Phys. 8, 1057 (2006).
   Fr-Lr: K. Eichkorn, F. Weigend, O. Treutler, R. Ahlrichs; Theor. Chem. Acc. 97, 119 (1997).

================================================================================
                                        WARNINGS
                       Please study these warnings very carefully!
================================================================================


WARNING: Geometry Optimization
  ===> : Switching off AutoStart
         For restart on a previous wavefunction, please use MOREAD

================================================================================
                                       INPUT FILE
================================================================================
NAME = trunc_tetrahedron_nn1.60.inp
|  1> ! BP86 def2-SVP def2/J RI Opt TightSCF D3BJ
|  2> ! SlowConv
|  3> 
|  4> %pal nprocs 8 end
|  5> %maxcore 2500
|  6> 
|  7> %geom
|  8>   MaxIter 300
|  9> end
| 10> 
| 11> * xyz 0 1
| 12> B     -1.88561808     -0.37712362      0.00000000
| 13> B     -1.88561808      0.75424723     -1.13137085
| 14> B     -1.88561808      0.75424723      1.13137085
| 15> B     -1.88561808      1.88561808      0.00000000
| 16> B      0.37712362     -2.63986532      0.00000000
| 17> B      0.37712362      0.75424723     -3.39411255
| 18> B      0.37712362      0.75424723      3.39411255
| 19> B      0.37712362      4.14835978      0.00000000
| 20> B      1.50849447     -2.63986532     -1.13137085
| 21> B      1.50849447     -2.63986532      1.13137085
| 22> B      1.50849447     -0.37712362     -3.39411255
| 23> B      1.50849447     -0.37712362      3.39411255
| 24> *
| 25> 
| 26>                          ****END OF INPUT****
================================================================================

                       *****************************
                       * Geometry Optimization Run *
                       *****************************

Geometry optimization settings:
Update method            Update   .... BFGS
Choice of coordinates    CoordSys .... (2022) Redundant Internals
Initial Hessian          InHess   .... Almloef's Model
Max. no of cycles        MaxIter  .... 300

Convergence Tolerances:
Energy Change            TolE     ....  5.0000e-06 Eh
Max. Gradient            TolMAXG  ....  3.0000e-04 Eh/bohr
RMS Gradient             TolRMSG  ....  1.0000e-04 Eh/bohr
Max. Displacement        TolMAXD  ....  4.0000e-03 bohr
RMS Displacement         TolRMSD  ....  2.0000e-03 bohr
Strict Convergence                .... False

------------------------------------------------------------------------------
                        ORCA OPTIMIZATION COORDINATE SETUP
------------------------------------------------------------------------------

The optimization will be done in redundant internal coordinates (2022)
Making redundant internal coordinates   ...  (2022 redundants) done
Evaluating the initial hessian          ...  (Almloef) done
Evaluating the coordinates              ...  done
Calculating the B-matrix                .... done
Calculating the G-matrix                .... done
The number of degrees of freedom        ....   67

    -----------------------------------------------------------------
                    Redundant Internal Coordinates


    -----------------------------------------------------------------
         Definition                    Initial Value    Approx d2E/dq
    -----------------------------------------------------------------
      1. B(B   1,B   0)                  1.6000         0.387554   
      2. B(B   2,B   0)                  1.6000         0.387554   
      3. B(B   3,B   2)                  1.6000         0.387554   
      4. B(B   3,B   1)                  1.6000         0.387554   
      5. B(B   4,B   0)                  3.2000         0.010000   
      6. B(B   5,B   1)                  3.2000         0.010000   
      7. B(B   6,B   2)                  3.2000         0.010000   
      8. B(B   7,B   3)                  3.2000         0.010000   
      9. B(B   8,B   4)                  1.6000         0.387554   
     10. B(B   9,B   4)                  1.6000         0.387554   
     11. B(B  10,B   5)                  1.6000         0.387554   
     12. B(B  10,B   8)                  3.2000         0.010000   
     13. B(B  11,B   9)                  3.2000         0.010000   
     14. B(B  11,B   6)                  1.6000         0.387554   
     15. A(B   1,B   0,B   4)          120.0000         0.165954   
     16. A(B   2,B   0,B   4)          120.0000         0.165954   
     17. A(B   1,B   0,B   2)           90.0000         0.380075   
     18. A(B   0,B   1,B   3)           90.0000         0.380075   
     19. A(B   3,B   1,B   5)          120.0000         0.165954   
     20. A(B   0,B   1,B   5)          120.0000         0.165954   
     21. A(B   3,B   2,B   6)          120.0000         0.165954   
     22. A(B   0,B   2,B   6)          120.0000         0.165954   
     23. A(B   0,B   2,B   3)           90.0000         0.380075   
     24. A(B   2,B   3,B   7)          120.0000         0.165954   
     25. A(B   1,B   3,B   7)          120.0000         0.165954   
     26. A(B   1,B   3,B   2)           90.0000         0.380075   
     27. A(B   0,B   4,B   9)          120.0000         0.165954   
     28. A(B   8,B   4,B   9)           90.0000         0.380075   
     29. A(B   0,B   4,B   8)          120.0000         0.165954   
     30. A(B   1,B   5,B  10)          120.0000         0.165954   
     31. A(B   2,B   6,B  11)          120.0000         0.165954   
     32. A(B   4,B   8,B  10)          120.0000         0.165954   
     33. A(B   4,B   9,B  11)          120.0000         0.165954   
     34. A(B   5,B  10,B   8)          120.0000         0.165954   
     35. A(B   6,B  11,B   9)          120.0000         0.165954   
     36. D(B   3,B   1,B   0,B   2)      0.0000         0.010000   
     37. D(B   3,B   1,B   0,B   4)   -125.2644         0.010000   
     38. D(B   5,B   1,B   0,B   2)    125.2644         0.010000   
     39. D(B   5,B   1,B   0,B   4)      0.0000         0.010000   
     40. D(B   3,B   2,B   0,B   4)    125.2644         0.010000   
     41. D(B   3,B   2,B   0,B   1)      0.0000         0.010000   
     42. D(B   6,B   2,B   0,B   4)     -0.0000         0.010000   
     43. D(B   6,B   2,B   0,B   1)   -125.2644         0.010000   
     44. D(B   1,B   3,B   2,B   6)    125.2644         0.010000   
     45. D(B   1,B   3,B   2,B   0)      0.0000         0.010000   
     46. D(B   7,B   3,B   1,B   5)      0.0000         0.010000   
     47. D(B   7,B   3,B   1,B   0)    125.2644         0.010000   
     48. D(B   2,B   3,B   1,B   5)   -125.2644         0.010000   
     49. D(B   7,B   3,B   2,B   0)   -125.2644         0.010000   
     50. D(B   2,B   3,B   1,B   0)      0.0000         0.010000   
     51. D(B   7,B   3,B   2,B   6)      0.0000         0.010000   
     52. D(B   9,B   4,B   0,B   2)     -0.0000         0.010000   
     53. D(B   9,B   4,B   0,B   1)    109.4712         0.010000   
     54. D(B   8,B   4,B   0,B   2)   -109.4712         0.010000   
     55. D(B   8,B   4,B   0,B   1)      0.0000         0.010000   
     56. D(B  10,B   5,B   1,B   3)    109.4712         0.010000   
     57. D(B  10,B   5,B   1,B   0)     -0.0000         0.010000   
     58. D(B  11,B   6,B   2,B   3)   -109.4712         0.010000   
     59. D(B  11,B   6,B   2,B   0)      0.0000         0.010000   
     60. D(B  10,B   8,B   4,B   0)     -0.0000         0.010000   
     61. D(B  10,B   8,B   4,B   9)   -125.2644         0.010000   
     62. D(B  11,B   9,B   4,B   0)      0.0000         0.010000   
     63. D(B  11,B   9,B   4,B   8)    125.2644         0.010000   
     64. D(B   5,B  10,B   8,B   4)      0.0000         0.010000   
     65. D(B   8,B  10,B   5,B   1)      0.0000         0.010000   
     66. D(B   9,B  11,B   6,B   2)     -0.0000         0.010000   
     67. D(B   6,B  11,B   9,B   4)     -0.0000         0.010000   
    -----------------------------------------------------------------

Number of atoms                         .... 12
Number of degrees of freedom            .... 67


         *************************************************************
         *                GEOMETRY OPTIMIZATION CYCLE   1            *
         *************************************************************
---------------------------------
CARTESIAN COORDINATES (ANGSTROEM)
---------------------------------
  B     -1.885618   -0.377124    0.000000
  B     -1.885618    0.754247   -1.131371
  B     -1.885618    0.754247    1.131371
  B     -1.885618    1.885618    0.000000
  B      0.377124   -2.639865    0.000000
  B      0.377124    0.754247   -3.394113
  B      0.377124    0.754247    3.394113
  B      0.377124    4.148360    0.000000
  B      1.508494   -2.639865   -1.131371
  B      1.508494   -2.639865    1.131371
  B      1.508494   -0.377124   -3.394113
  B      1.508494   -0.377124    3.394113

----------------------------
CARTESIAN COORDINATES (A.U.)
----------------------------
  NO LB      ZA    FRAG     MASS         X           Y           Z
   0 B     5.0000    0    10.810   -3.563302   -0.712660    0.000000
   1 B     5.0000    0    10.810   -3.563302    1.425321   -2.137981
   2 B     5.0000    0    10.810   -3.563302    1.425321    2.137981
   3 B     5.0000    0    10.810   -3.563302    3.563302    0.000000
   4 B     5.0000    0    10.810    0.712660   -4.988622    0.000000
   5 B     5.0000    0    10.810    0.712660    1.425321   -6.413943
   6 B     5.0000    0    10.810    0.712660    1.425321    6.413943
   7 B     5.0000    0    10.810    0.712660    7.839264    0.000000
   8 B     5.0000    0    10.810    2.850641   -4.988622   -2.137981
   9 B     5.0000    0    10.810    2.850641   -4.988622    2.137981
  10 B     5.0000    0    10.810    2.850641   -0.712660   -6.413943
  11 B     5.0000    0    10.810    2.850641   -0.712660    6.413943

--------------------------------
INTERNAL COORDINATES (ANGSTROEM)
--------------------------------
 B      0   0   0     0.000000000000     0.00000000     0.00000000
 B      1   0   0     1.600000000144     0.00000000     0.00000000
 B      1   2   0     1.600000000144    90.00000000     0.00000000
 B      2   1   3     1.600000000144    90.00000000     0.00000000
 B      1   2   3     3.200000000287   120.00000000   234.73561032
 B      2   1   3     3.200000000287   120.00000000   125.26438968
 B      3   1   2     3.200000000287   120.00000000   234.73561032
 B      4   2   1     3.200000000287   120.00000000   125.26438968
 B      5   1   2     1.600000000144   120.00000000     0.00000000
 B      5   1   2     1.600000000144   120.00000000   109.47122063
 B      6   2   1     1.600000000144   120.00000000     0.00000000
 B      7   3   1     1.600000000144   120.00000000     0.00000000

---------------------------
INTERNAL COORDINATES (A.U.)
---------------------------
 B      0   0   0     0.000000000000     0.00000000     0.00000000
 B      1   0   0     3.023561814545     0.00000000     0.00000000
 B      1   2   0     3.023561814545    90.00000000     0.00000000
 B      2   1   3     3.023561814545    90.00000000     0.00000000
 B      1   2   3     6.047123629091   120.00000000   234.73561032
 B      2   1   3     6.047123629091   120.00000000   125.26438968
 B      3   1   2     6.047123629091   120.00000000   234.73561032
 B      4   2   1     6.047123629091   120.00000000   125.26438968
 B      5   1   2     3.023561814545   120.00000000     0.00000000
 B      5   1   2     3.023561814545   120.00000000   109.47122063
 B      6   2   1     3.023561814545   120.00000000     0.00000000
 B      7   3   1     3.023561814545   120.00000000     0.00000000

---------------------
BASIS SET INFORMATION
---------------------
There are 1 groups of distinct atoms

 Group   1 Type B   : 7s4p1d contracted to 3s2p1d pattern {511/31/1}

Atom   0B    basis set group =>   1
Atom   1B    basis set group =>   1
Atom   2B    basis set group =>   1
Atom   3B    basis set group =>   1
Atom   4B    basis set group =>   1
Atom   5B    basis set group =>   1
Atom   6B    basis set group =>   1
Atom   7B    basis set group =>   1
Atom   8B    basis set group =>   1
Atom   9B    basis set group =>   1
Atom  10B    basis set group =>   1
Atom  11B    basis set group =>   1
---------------------------------
AUXILIARY/J BASIS SET INFORMATION
---------------------------------
There are 1 groups of distinct atoms

 Group   1 Type B   : 12s5p4d2f1g contracted to 6s4p3d1f1g pattern {711111/2111/211/2/1}

Atom   0B    basis set group =>   1
Atom   1B    basis set group =>   1
Atom   2B    basis set group =>   1
Atom   3B    basis set group =>   1
Atom   4B    basis set group =>   1
Atom   5B    basis set group =>   1
Atom   6B    basis set group =>   1
Atom   7B    basis set group =>   1
Atom   8B    basis set group =>   1
Atom   9B    basis set group =>   1
Atom  10B    basis set group =>   1
Atom  11B    basis set group =>   1


           ************************************************************
           *        Program running with 8 parallel MPI-processes     *
           *              working on a common directory               *
           ************************************************************
------------------------------------------------------------------------------
                             ORCA STARTUP CALCULATIONS
                           -- RI-GTO INTEGRALS CHOSEN --
------------------------------------------------------------------------------
------------------------------------------------------------------------------
                   ___                                                        
                  /   \      - P O W E R E D   B Y -                         
                 /     \                                                     
                 |  |  |   _    _      __       _____    __    __             
                 |  |  |  | |  | |    /  \     |  _  \  |  |  /  |          
                  \  \/   | |  | |   /    \    | | | |  |  | /  /          
                 / \  \   | |__| |  /  /\  \   | |_| |  |  |/  /          
                |  |  |   |  __  | /  /__\  \  |    /   |      \           
                |  |  |   | |  | | |   __   |  |    \   |  |\   \          
                \     /   | |  | | |  |  |  |  | |\  \  |  | \   \       
                 \___/    |_|  |_| |__|  |__|  |_| \__\ |__|  \__/        
                                                                              
                      - O R C A' S   B I G   F R I E N D -                    
                                      &                                       
                       - I N T E G R A L  F E E D E R -                       
                                                                              
 v1 FN, 2020, v2 2021, v3 2022-2024                                           
------------------------------------------------------------------------------


----------------------
SHARK INTEGRAL PACKAGE
----------------------

Number of atoms                             ...     12
Number of basis functions                   ...    168
Number of shells                            ...     72
Maximum angular momentum                    ...      2
Integral batch strategy                     ... SHARK/LIBINT Hybrid
RI-J (if used) integral strategy            ... SPLIT-RIJ (Revised 2003 algorithm where possible)
Printlevel                                  ...      1
Contraction scheme used                     ... SEGMENTED contraction
Prescreening option                         ... SCHWARTZ
   Thresh                                   ... 2.500e-11
   Tcut                                     ... 2.500e-12
   Tpresel                                  ... 2.500e-12 
Coulomb Range Separation                    ... NOT USED
Exchange Range Separation                   ... NOT USED
Multipole approximations                    ... NOT USED
Finite Nucleus Model                        ... NOT USED
CABS basis                                  ... NOT available
Auxiliary Coulomb fitting basis             ... AVAILABLE
   # of basis functions in Aux-J            ...    588
   # of shells in Aux-J                     ...    180
   Maximum angular momentum in Aux-J        ...      4
Auxiliary J/K fitting basis                 ... NOT available
Auxiliary Correlation fitting basis         ... NOT available
Auxiliary 'external' fitting basis          ... NOT available

Checking pre-screening integrals            ... done (  0.0 sec) Dimension = 72
   => SHARK Basis and OBASIS are compatible. Storing Pre-screening
Shell pair information
Shell pair cut-off parameter TPreSel        ...   2.5e-12
Total number of shell pairs                 ...      2628
Shell pairs after pre-screening             ...      2418
Total number of primitive shell pairs       ...     10596
Primitive shell pairs kept                  ...      6416
          la=0 lb=0:    581 shell pairs
          la=1 lb=0:    826 shell pairs
          la=1 lb=1:    300 shell pairs
          la=2 lb=0:    366 shell pairs
          la=2 lb=1:    274 shell pairs
          la=2 lb=2:     71 shell pairs

Checking whether 4 symmetric matrices of dimension 168 fit in memory
:Max Core in MB      =   2500.00
 MB in use           =      6.49
 MB left             =   2493.51
 MB needed           =      0.43
 Data fit in memory  = YES
Calculating RI/J V-Matrix + Cholesky decomp.... done (  0.0 sec)
Calculating Nuclear repulsion               ... done (  0.0 sec) ENN=    237.984228699191 Eh

Diagonalization of the overlap matrix:
Smallest eigenvalue                        ... 2.107e-04
Time for diagonalization                   ...    0.005 sec
Threshold for overlap eigenvalues          ... 1.000e-07
Number of eigenvalues below threshold      ... 0
Time for construction of square roots      ...    0.002 sec
Total time needed                          ...    0.009 sec

-------------------
DFT GRID GENERATION
-------------------

General Integration Accuracy     IntAcc      ... 4.388
Radial Grid Type                 RadialGrid  ... OptM3 with GC (2021)
Angular Grid (max. ang.)         AngularGrid ... 4 (Lebedev-302)
Angular grid pruning method      GridPruning ... 4 (adaptive)
Weight generation scheme         WeightScheme... mBecke (2022)
Basis function cutoff            BFCut       ... 1.0000e-11
Integration weight cutoff        WCut        ... 1.0000e-14
Partially contracted basis set               ... off
Rotationally invariant grid construction     ... off
Angular grids for H and He will be reduced by one unit

Total number of grid points                  ...    72781
Total number of batches                      ...     1144
Average number of points per batch           ...       63
Average number of grid points per atom       ...     6065
Grids setup in   0.7 sec
Initializing property integral containers    ... done (  0.0 sec)

SHARK setup successfully completed in   0.8 seconds

Maximum memory used throughout the entire STARTUP-calculation: 19.7 MB


           ************************************************************
           *        Program running with 8 parallel MPI-processes     *
           *              working on a common directory               *
           ************************************************************
-------------------------------------------------------------------------------
                                 ORCA GUESS
                   Start orbitals & Density for SCF / CASSCF
-------------------------------------------------------------------------------

------------
SCF SETTINGS
------------
Hamiltonian:
 Density Functional     Method          .... DFT(GTOs)
 Exchange Functional    Exchange        .... B88
   X-Alpha parameter    XAlpha          ....  0.666667
   Becke's b parameter  XBeta           ....  0.004200
 Correlation Functional Correlation     .... P86
 LDA part of GGA corr.  LDAOpt          .... PW91-LDA
 Gradients option       PostSCFGGA      .... off
   NL short-range parameter             ....  4.400000
 RI-approximation to the Coulomb term is turned on
   Number of AuxJ basis functions       .... 588


General Settings:
 Integral files         IntName         .... trunc_tetrahedron_nn1.60
 Hartree-Fock type      HFTyp           .... RHF
 Total Charge           Charge          ....    0
 Multiplicity           Mult            ....    1
 Number of Electrons    NEL             ....   60
 Basis Dimension        Dim             ....  168
 Nuclear Repulsion      ENuc            ....    237.9842286992 Eh

Convergence Acceleration:
 AO-DIIS                CNVDIIS         .... on
   Start iteration      DIISMaxIt       ....     0
   Startup error        DIISStart       ....  0.200000
   # of expansion vecs  DIISMaxEq       ....     5
   Bias factor          DIISBfac        ....   1.050
   Max. coefficient     DIISMaxC        ....  10.000
 MO-DIIS                CNVKDIIS        .... off
 Trust-Rad. Augm. Hess. CNVTRAH         .... auto
   Auto Start mean grad. ratio tolernc. ....  1.125000
   Auto Start start iteration           ....    50
   Auto Start num. interpolation iter.  ....    10
   Max. Number of Micro iterations      ....    24
   Max. Number of Macro iterations      .... Maxiter - #DIIS iter
   Number of Davidson start vectors     ....     2
   Converg. threshold    (grad. norm)   ....   1.000e-05
   Grad. Scal. Fac. for Micro threshold ....   0.100
   Minimum threshold for Micro iter.    ....   1.000e-02
   NR start threshold (gradient norm)   ....   1.000e-04
   Initial trust radius                 ....   0.400
   Minimum AH scaling param. (alpha)    ....   1.000
   Maximum AH scaling param. (alpha)    .... 1000.000
   Quad. conv. algorithm                .... NR
   White noise on init. David. guess    .... on
   Maximum white noise                  ....   0.010
   Pseudo random numbers                .... off
   Inactive MOs                         .... canonical
   Orbital update algorithm             .... Taylor
   Preconditioner                       .... Diag
   Full preconditioner red. dimension   ....   250
 SOSCF                 CNVSOSCF           .... on
   Start iteration     SOSCFMaxIt         ....   150
   Startup grad/error  SOSCFStart         ....  0.001000
   Hessian update      SOSCFHessUp        .... L-BFGS
   Autom. constraints  SOSCFAutoConstrain .... off
 Level Shifting         CNVShift        .... on
   Level shift para.    LevelShift      ....    0.2500
   Turn off err/grad.   ShiftErr        ....    0.0000
 Zerner damping         CNVZerner       .... off
 Static damping         CNVDamp         .... on
   Fraction old density DampFac         ....    0.8500
   Max. Damping (<1)    DampMax         ....    0.9800
   Min. Damping (>=0)   DampMin         ....    0.0000
   Turn off err/grad.   DampErr         ....    0.0300

SCF Procedure:
 Maximum # iterations   MaxIter         ....   125
 SCF integral mode      SCFMode         .... Direct
   Integral package                     .... SHARK and LIBINT hybrid scheme
 Reset frequency        DirectResetFreq ....    20
 Integral Threshold     Thresh          ....  2.500e-11 Eh
 Primitive CutOff       TCut            ....  2.500e-12 Eh

Convergence Tolerance:
 Convergence Check Mode ConvCheckMode   .... Total+1el-Energy
 Convergence forced     ConvForced      .... 0
 Energy Change          TolE            ....  1.000e-08 Eh
 1-El. energy change                    ....  1.000e-05 Eh
 Orbital Gradient       TolG            ....  1.000e-05
 Orbital Rotation angle TolX            ....  1.000e-05
 DIIS Error             TolErr          ....  5.000e-07

------------------------------
INITIAL GUESS: MODEL POTENTIAL
------------------------------
Loading Hartree-Fock densities                     ... done
Calculating cut-offs                               ... done
Initializing the effective Hamiltonian             ... done
Setting up the integral package (SHARK)            ... done
Starting the Coulomb interaction                   ... done (   0.0 sec)
Making the grid                                    ... done (   0.1 sec)
Mapping shells                                     ... done
Starting the XC term evaluation                    ... done (   0.0 sec)
  promolecular density results
     # of electrons  =     60.005441797
     EX              =    -44.945799800
     EC              =     -1.790558414
     EX+EC           =    -46.736358214
Transforming the Hamiltonian                       ... done (   0.0 sec)
Diagonalizing the Hamiltonian                      ... done (   0.0 sec)
Back transforming the eigenvectors                 ... done (   0.0 sec)
Now organizing SCF variables                       ... done
                      ------------------
                      INITIAL GUESS DONE (   0.2 sec)
                      ------------------
             **** ENERGY FILE WAS UPDATED (trunc_tetrahedron_nn1.60.en.tmp) ****
Finished Guess after   0.7 sec
Maximum memory used throughout the entire GUESS-calculation: 9.2 MB


           ************************************************************
           *        Program running with 8 parallel MPI-processes     *
           *              working on a common directory               *
           ************************************************************

-------------------------------------------------------------------------------------------
                                      ORCA LEAN-SCF
                              memory conserving SCF solver
-------------------------------------------------------------------------------------------

----------------------------------------D-I-I-S--------------------------------------------
Iteration    Energy (Eh)           Delta-E    RMSDP     MaxDP     DIISErr   Damp  Time(sec)
-------------------------------------------------------------------------------------------
               ***  Starting incremental Fock matrix formation  ***
    1    -295.9687365846732519     0.00e+00  1.27e-02  2.10e-01  2.15e-01  0.850   0.3
Warning: op=0 Small HOMO/LUMO gap (  -0.128) - skipping pre-diagonalization
         Will do a full diagonalization
    2    -296.2516151981044459    -2.83e-01  9.50e-03  9.62e-02  1.18e-01  0.850   0.4
                               ***Turning on AO-DIIS***
    3    -296.1528585262759634     9.88e-02  6.28e-03  7.63e-02  7.47e-02  0.850   0.2
    4    -296.2537028049209766    -1.01e-01  4.19e-03  6.19e-02  4.26e-02  0.850   0.3
    5    -296.3059637643649467    -5.23e-02  3.08e-03  4.46e-02  3.91e-02  0.850   0.3
    6    -296.3351447249733610    -2.92e-02  2.41e-03  2.83e-02  4.16e-02  0.850   0.4
    7    -296.3516623328071091    -1.65e-02  2.18e-03  2.39e-02  4.31e-02  0.850   0.3
    8    -296.3671052176882768    -1.54e-02  2.10e-03  2.02e-02  4.74e-02  0.850   0.2
    9    -296.3820994043119299    -1.50e-02  2.13e-03  2.84e-02  5.49e-02  0.850   0.3
   10    -296.3969139656057905    -1.48e-02  2.50e-03  4.51e-02  5.80e-02  0.850   0.3
   11    -296.4142911957983415    -1.74e-02  3.10e-03  5.86e-02  5.60e-02  0.850   0.4
   12    -296.4369500549699978    -2.27e-02  3.11e-03  5.14e-02  4.69e-02  0.850   0.3
   13    -296.4597357423942867    -2.28e-02  2.65e-03  3.42e-02  3.45e-02  0.850   0.3
   14    -296.4777290803259575    -1.80e-02  2.12e-03  1.94e-02  2.35e-02  0.850   0.3
   15    -296.4908037848745153    -1.31e-02  1.12e-02  8.39e-02  1.59e-02  0.000   0.3
   16    -296.5403300684201895    -4.95e-02  1.09e-03  1.19e-02  2.70e-02  0.000   0.3
   17    -296.5443517208744879    -4.02e-03  1.02e-03  1.18e-02  2.01e-02  0.000   0.3
   18    -296.5471074789436443    -2.76e-03  7.13e-04  5.98e-03  1.32e-02  0.000   0.3
   19    -296.5484048779210298    -1.30e-03  6.54e-04  5.66e-03  1.08e-02  0.000   0.2
   20    -296.5491280599270567    -7.23e-04  5.21e-04  5.06e-03  6.67e-03  0.000   0.3
               *** Restarting incremental Fock matrix formation ***
                             ****Resetting DIIS****
Warning: op=0 Small HOMO/LUMO gap (   0.000) - skipping pre-diagonalization
         Will do a full diagonalization
   21    -296.5497225925431621    -5.95e-04  3.80e-03  5.02e-02  4.82e-03  0.000   0.3
   22    -296.5440906365332694     5.63e-03  1.06e-03  2.05e-02  1.82e-02  0.000   0.3
   23    -296.5465023838058869    -2.41e-03  6.53e-04  6.91e-03  1.47e-02  0.000   0.3
   24    -296.5480648040806955    -1.56e-03  5.19e-04  5.23e-03  1.12e-02  0.000   0.2
   25    -296.5490552833546190    -9.90e-04  4.43e-04  3.99e-03  8.55e-03  0.000   0.2
   26    -296.5496851221269026    -6.30e-04  8.11e-04  6.86e-03  6.48e-03  0.000   0.3
   27    -296.5502133714594493    -5.28e-04  6.90e-04  4.90e-03  3.48e-03  0.000   0.3
   28    -296.5504848919329106    -2.72e-04  4.18e-04  2.75e-03  1.57e-03  0.000   0.2
   29    -296.5505589621429863    -7.41e-05  2.82e-04  1.89e-03  1.18e-03  0.000   0.2
                              *** Initializing SOSCF ***
---------------------------------------S-O-S-C-F--------------------------------------
Iteration    Energy (Eh)           Delta-E    RMSDP     MaxDP     MaxGrad    Time(sec)
--------------------------------------------------------------------------------------
   30    -296.5505905626445156    -3.16e-05  2.07e-04  1.15e-03  6.96e-04     0.3
               *** Restarting incremental Fock matrix formation ***
   31    -296.5506060057886089    -1.54e-05  3.64e-04  4.09e-03  5.27e-04     0.3
   32    -296.5505912204332617     1.48e-05  2.20e-04  2.32e-03  9.97e-04     0.2
   33    -296.5506288017656971    -3.76e-05  3.36e-04  2.59e-03  4.05e-04     0.2
   34    -296.5506256333977717     3.17e-06  2.55e-04  1.72e-03  6.98e-04     0.3
   35    -296.5506548079654294    -2.92e-05  5.11e-04  2.75e-03  3.54e-04     0.3
   36    -296.5506525931531314     2.21e-06  5.46e-04  3.33e-03  1.48e-03     0.2
   37    -296.5506488250473467     3.77e-06  4.11e-04  4.04e-03  2.11e-03     0.2
   38    -296.5506613086378138    -1.25e-05  2.55e-04  2.22e-03  9.51e-04     0.2
   39    -296.5506848442414594    -2.35e-05  2.10e-04  1.86e-03  3.41e-04     0.2
   40    -296.5506858555222607    -1.01e-06  1.20e-04  1.14e-03  3.24e-04     0.5
   41    -296.5506914775299947    -5.62e-06  1.07e-04  7.97e-04  1.29e-04     0.3
   42    -296.5506901702154892     1.31e-06  6.35e-05  4.75e-04  2.17e-04     0.3
   43    -296.5506933098579339    -3.14e-06  4.87e-05  2.75e-04  5.75e-05     0.2
   44    -296.5506938057731077    -4.96e-07  1.93e-04  1.11e-03  4.23e-05     0.2
   45    -296.5506946896340423    -8.84e-07  3.99e-05  2.32e-04  5.46e-05     0.3
   46    -296.5506948818930368    -1.92e-07  2.02e-05  1.32e-04  3.57e-05     0.2
   47    -296.5506949488740247    -6.70e-08  1.47e-05  1.08e-04  2.91e-05     0.3
   48    -296.5506950027833000    -5.39e-08  1.37e-05  7.42e-05  1.02e-05     0.2
   49    -296.5506950149756449    -1.22e-08  1.81e-05  9.57e-05  2.28e-05     0.2
   50    -296.5506950376320674    -2.27e-08  6.08e-06  4.11e-05  7.24e-06     0.2
               *** Restarting incremental Fock matrix formation ***
   51    -296.5506950373784321     2.54e-10  5.10e-06  3.73e-05  1.30e-05     0.3
                 **** Energy Check signals convergence ****

               *****************************************************
               *                     SUCCESS                       *
               *           SCF CONVERGED AFTER  51 CYCLES          *
               *****************************************************

             **** ENERGY FILE WAS UPDATED (trunc_tetrahedron_nn1.60.en.tmp) ****

----------------
TOTAL SCF ENERGY
----------------

Total Energy       :       -296.55069504106189 Eh           -8069.55466 eV

Components:
Nuclear Repulsion  :        237.98422869919065 Eh            6475.88009 eV
Electronic Energy  :       -534.53492374025257 Eh          -14545.43475 eV
One Electron Energy:       -864.69247860243252 Eh          -23529.47856 eV
Two Electron Energy:        330.15755486217995 Eh            8984.04381 eV

Virial components:
Potential Energy   :       -589.29217776158077 Eh          -16035.45538 eV
Kinetic Energy     :        292.74148272051889 Eh            7965.90072 eV
Virial Ratio       :          2.01301220546245

DFT components:
N(Alpha)           :       29.999832891141 electrons
N(Beta)            :       29.999832891141 electrons
N(Total)           :       59.999665782281 electrons
E(X)               :      -45.390293869621 Eh       
E(C)               :       -1.826849347360 Eh       
E(XC)              :      -47.217143216981 Eh       

---------------
SCF CONVERGENCE
---------------

  Last Energy change         ...   -2.5364e-10  Tolerance :   1.0000e-08
  Last MAX-Density change    ...    3.7322e-05  Tolerance :   1.0000e-07
  Last RMS-Density change    ...    5.1003e-06  Tolerance :   5.0000e-09
  Last DIIS Error            ...    6.9558e-04  Tolerance :   5.0000e-07
  Last Orbital Gradient      ...    1.3005e-05  Tolerance :   1.0000e-05
  Last Orbital Rotation      ...    6.2440e-05  Tolerance :   1.0000e-05


----------------
ORBITAL ENERGIES
----------------

  NO   OCC          E(Eh)            E(eV) 
   0   2.0000      -6.727379      -183.0613 
   1   2.0000      -6.617886      -180.0818 
   2   2.0000      -6.617845      -180.0807 
   3   2.0000      -6.615519      -180.0174 
   4   2.0000      -6.615513      -180.0173 
   5   2.0000      -6.615365      -180.0132 
   6   2.0000      -6.615234      -180.0097 
   7   2.0000      -6.586488      -179.2275 
   8   2.0000      -6.586466      -179.2269 
   9   2.0000      -6.579685      -179.0423 
  10   2.0000      -6.572409      -178.8443 
  11   2.0000      -6.552353      -178.2986 
  12   2.0000      -0.580938       -15.8081 
  13   2.0000      -0.508572       -13.8389 
  14   2.0000      -0.472108       -12.8467 
  15   2.0000      -0.471771       -12.8375 
  16   2.0000      -0.401612       -10.9284 
  17   2.0000      -0.366030        -9.9602 
  18   2.0000      -0.362628        -9.8676 
  19   2.0000      -0.338299        -9.2056 
  20   2.0000      -0.272660        -7.4195 
  21   2.0000      -0.257659        -7.0113 
  22   2.0000      -0.257545        -7.0081 
  23   2.0000      -0.253219        -6.8904 
  24   2.0000      -0.248884        -6.7725 
  25   2.0000      -0.242132        -6.5888 
  26   2.0000      -0.210067        -5.7162 
  27   2.0000      -0.206508        -5.6194 
  28   2.0000      -0.201288        -5.4773 
  29   2.0000      -0.196666        -5.3516 
  30   0.0000      -0.195962        -5.3324 
  31   0.0000      -0.194830        -5.3016 
  32   0.0000      -0.193820        -5.2741 
  33   0.0000      -0.190078        -5.1723 
  34   0.0000      -0.185582        -5.0499 
  35   0.0000      -0.185122        -5.0374 
  36   0.0000      -0.172723        -4.7000 
  37   0.0000      -0.167817        -4.5665 
  38   0.0000      -0.140609        -3.8262 
  39   0.0000      -0.098858        -2.6901 
  40   0.0000      -0.094578        -2.5736 
*Only the first 10 virtual orbitals were printed.

                    ********************************
                    * MULLIKEN POPULATION ANALYSIS *
                    ********************************

-----------------------
MULLIKEN ATOMIC CHARGES
-----------------------
   0 B :    0.048252
   1 B :    0.015748
   2 B :    0.015718
   3 B :   -0.100368
   4 B :    0.003178
   5 B :   -0.050507
   6 B :   -0.050546
   7 B :    0.258577
   8 B :   -0.042818
   9 B :   -0.042836
  10 B :   -0.027244
  11 B :   -0.027155
Sum of atomic charges:   -0.0000000

--------------------------------
MULLIKEN REDUCED ORBITAL CHARGES
--------------------------------
  0 B s       :     3.177381  s :     3.177381
      pz      :     0.843636  p :     1.741714
      px      :     0.473222
      py      :     0.424856
      dz2     :     0.005451  d :     0.032653
      dxz     :     0.000315
      dyz     :     0.011914
      dx2y2   :     0.006464
      dxy     :     0.008510

  1 B s       :     3.172325  s :     3.172325
      pz      :     0.424460  p :     1.779149
      px      :     0.504635
      py      :     0.850054
      dz2     :     0.010243  d :     0.032778
      dxz     :     0.008289
      dyz     :     0.011562
      dx2y2   :     0.002460
      dxy     :     0.000223

  2 B s       :     3.172327  s :     3.172327
      pz      :     0.424470  p :     1.779177
      px      :     0.504646
      py      :     0.850061
      dz2     :     0.010243  d :     0.032778
      dxz     :     0.008289
      dyz     :     0.011562
      dx2y2   :     0.002460
      dxy     :     0.000223

  3 B s       :     3.185850  s :     3.185850
      pz      :     0.842467  p :     1.883104
      px      :     0.515047
      py      :     0.525590
      dz2     :     0.004780  d :     0.031414
      dxz     :     0.000358
      dyz     :     0.012013
      dx2y2   :     0.006263
      dxy     :     0.007999

  4 B s       :     3.159045  s :     3.159045
      pz      :     0.681591  p :     1.807053
      px      :     0.488171
      py      :     0.637291
      dz2     :     0.005188  d :     0.030724
      dxz     :     0.012228
      dyz     :     0.000270
      dx2y2   :     0.006029
      dxy     :     0.007009

  5 B s       :     3.499284  s :     3.499284
      pz      :     0.416358  p :     1.535638
      px      :     0.655241
      py      :     0.464040
      dz2     :     0.001824  d :     0.015584
      dxz     :     0.001918
      dyz     :     0.001851
      dx2y2   :     0.004411
      dxy     :     0.005581

  6 B s       :     3.499299  s :     3.499299
      pz      :     0.416355  p :     1.535664
      px      :     0.655242
      py      :     0.464066
      dz2     :     0.001824  d :     0.015584
      dxz     :     0.001918
      dyz     :     0.001851
      dx2y2   :     0.004410
      dxy     :     0.005581

  7 B s       :     3.984371  s :     3.984371
      pz      :     0.135523  p :     0.756593
      px      :     0.376473
      py      :     0.244597
      dz2     :     0.000097  d :     0.000459
      dxz     :     0.000016
      dyz     :     0.000030
      dx2y2   :     0.000029
      dxy     :     0.000287

  8 B s       :     3.454308  s :     3.454308
      pz      :     0.503941  p :     1.569183
      px      :     0.522709
      py      :     0.542533
      dz2     :     0.006301  d :     0.019327
      dxz     :     0.005293
      dyz     :     0.004308
      dx2y2   :     0.002124
      dxy     :     0.001301

  9 B s       :     3.454314  s :     3.454314
      pz      :     0.503948  p :     1.569195
      px      :     0.522711
      py      :     0.542536
      dz2     :     0.006301  d :     0.019327
      dxz     :     0.005293
      dyz     :     0.004308
      dx2y2   :     0.002124
      dxy     :     0.001301

 10 B s       :     3.462884  s :     3.462884
      pz      :     0.465279  p :     1.550007
      px      :     0.466363
      py      :     0.618365
      dz2     :     0.001803  d :     0.014353
      dxz     :     0.001618
      dyz     :     0.001353
      dx2y2   :     0.004135
      dxy     :     0.005443

 11 B s       :     3.462867  s :     3.462867
      pz      :     0.465256  p :     1.549935
      px      :     0.466349
      py      :     0.618331
      dz2     :     0.001803  d :     0.014353
      dxz     :     0.001618
      dyz     :     0.001353
      dx2y2   :     0.004135
      dxy     :     0.005443



                     *******************************
                     * LOEWDIN POPULATION ANALYSIS *
                     *******************************

----------------------
LOEWDIN ATOMIC CHARGES
----------------------
   0 B :    0.029290
   1 B :    0.014755
   2 B :    0.014728
   3 B :   -0.091738
   4 B :   -0.269280
   5 B :   -0.037231
   6 B :   -0.037263
   7 B :    0.264958
   8 B :    0.090417
   9 B :    0.090400
  10 B :   -0.034558
  11 B :   -0.034477

-------------------------------
LOEWDIN REDUCED ORBITAL CHARGES
-------------------------------
  0 B s       :     2.919429  s :     2.919429
      pz      :     0.983912  p :     1.970300
      px      :     0.470175
      py      :     0.516212
      dz2     :     0.013081  d :     0.080981
      dxz     :     0.000590
      dyz     :     0.036125
      dx2y2   :     0.017723
      dxy     :     0.013463

  1 B s       :     2.890886  s :     2.890886
      pz      :     0.519852  p :     2.013196
      px      :     0.506248
      py      :     0.987096
      dz2     :     0.024611  d :     0.081164
      dxz     :     0.013164
      dyz     :     0.034897
      dx2y2   :     0.008076
      dxy     :     0.000416

  2 B s       :     2.890890  s :     2.890890
      pz      :     0.519861  p :     2.013218
      px      :     0.506257
      py      :     0.987100
      dz2     :     0.024611  d :     0.081163
      dxz     :     0.013164
      dyz     :     0.034897
      dx2y2   :     0.008076
      dxy     :     0.000416

  3 B s       :     2.904652  s :     2.904652
      pz      :     0.975734  p :     2.108916
      px      :     0.515280
      py      :     0.617902
      dz2     :     0.012250  d :     0.078170
      dxz     :     0.000688
      dyz     :     0.035854
      dx2y2   :     0.016813
      dxy     :     0.012566

  4 B s       :     2.947625  s :     2.947625
      pz      :     0.870883  p :     2.242984
      px      :     0.724132
      py      :     0.647969
      dz2     :     0.010131  d :     0.078670
      dxz     :     0.040278
      dyz     :     0.000491
      dx2y2   :     0.015887
      dxy     :     0.011882

  5 B s       :     3.235449  s :     3.235449
      pz      :     0.413871  p :     1.765262
      px      :     0.776589
      py      :     0.574802
      dz2     :     0.005789  d :     0.036520
      dxz     :     0.003074
      dyz     :     0.003035
      dx2y2   :     0.007205
      dxy     :     0.017417

  6 B s       :     3.235461  s :     3.235461
      pz      :     0.413868  p :     1.765284
      px      :     0.776588
      py      :     0.574828
      dz2     :     0.005789  d :     0.036519
      dxz     :     0.003074
      dyz     :     0.003034
      dx2y2   :     0.007205
      dxy     :     0.017417

  7 B s       :     3.968782  s :     3.968782
      pz      :     0.133873  p :     0.765717
      px      :     0.384335
      py      :     0.247509
      dz2     :     0.000121  d :     0.000543
      dxz     :     0.000012
      dyz     :     0.000022
      dx2y2   :     0.000030
      dxy     :     0.000358

  8 B s       :     3.127040  s :     3.127040
      pz      :     0.579582  p :     1.737301
      px      :     0.618538
      py      :     0.539180
      dz2     :     0.015085  d :     0.045242
      dxz     :     0.015346
      dyz     :     0.006590
      dx2y2   :     0.005513
      dxy     :     0.002708

  9 B s       :     3.127044  s :     3.127044
      pz      :     0.579590  p :     1.737313
      px      :     0.618541
      py      :     0.539183
      dz2     :     0.015085  d :     0.045242
      dxz     :     0.015346
      dyz     :     0.006590
      dx2y2   :     0.005513
      dxy     :     0.002708

 10 B s       :     3.212067  s :     3.212067
      pz      :     0.467720  p :     1.787800
      px      :     0.582682
      py      :     0.737398
      dz2     :     0.005748  d :     0.034691
      dxz     :     0.002641
      dyz     :     0.002266
      dx2y2   :     0.006918
      dxy     :     0.017118

 11 B s       :     3.212053  s :     3.212053
      pz      :     0.467699  p :     1.787733
      px      :     0.582668
      py      :     0.737366
      dz2     :     0.005748  d :     0.034692
      dxz     :     0.002641
      dyz     :     0.002266
      dx2y2   :     0.006918
      dxy     :     0.017118



                      *****************************
                      * MAYER POPULATION ANALYSIS *
                      *****************************

  NA   - Mulliken gross atomic population
  ZA   - Total nuclear charge
  QA   - Mulliken gross atomic charge
  VA   - Mayer's total valence
  BVA  - Mayer's bonded valence
  FA   - Mayer's free valence

  ATOM       NA         ZA         QA         VA         BVA        FA
  0 B      4.9517     5.0000     0.0483     3.3772     3.3772     0.0000
  1 B      4.9843     5.0000     0.0157     3.4270     3.4270    -0.0000
  2 B      4.9843     5.0000     0.0157     3.4271     3.4271    -0.0000
  3 B      5.1004     5.0000    -0.1004     3.4663     3.4663     0.0000
  4 B      4.9968     5.0000     0.0032     3.3466     3.3466    -0.0000
  5 B      5.0505     5.0000    -0.0505     2.8575     2.8575     0.0000
  6 B      5.0505     5.0000    -0.0505     2.8576     2.8576    -0.0000
  7 B      4.7414     5.0000     0.2586     1.1388     1.1388    -0.0000
  8 B      5.0428     5.0000    -0.0428     3.1123     3.1123    -0.0000
  9 B      5.0428     5.0000    -0.0428     3.1123     3.1123     0.0000
 10 B      5.0272     5.0000    -0.0272     2.9555     2.9555    -0.0000
 11 B      5.0272     5.0000    -0.0272     2.9555     2.9555    -0.0000

  Mayer bond orders larger than 0.100000
B(  0-B ,  1-B ) :   1.3287 B(  0-B ,  2-B ) :   1.3287 B(  0-B ,  3-B ) :   0.4105 
B(  0-B ,  4-B ) :   0.1073 B(  0-B ,  7-B ) :   0.1217 B(  1-B ,  2-B ) :   0.3886 
B(  1-B ,  3-B ) :   1.2942 B(  1-B ,  5-B ) :   0.2213 B(  2-B ,  3-B ) :   1.2942 
B(  2-B ,  6-B ) :   0.2213 B(  3-B ,  7-B ) :   0.3729 B(  4-B ,  8-B ) :   1.4203 
B(  4-B ,  9-B ) :   1.4203 B(  5-B ,  6-B ) :   0.2449 B(  5-B ,  8-B ) :   0.1793 
B(  5-B , 10-B ) :   1.7193 B(  5-B , 11-B ) :   0.2278 B(  6-B ,  9-B ) :   0.1793 
B(  6-B , 10-B ) :   0.2278 B(  6-B , 11-B ) :   1.7193 B(  8-B ,  9-B ) :   0.8146 
B(  8-B , 10-B ) :   0.4477 B(  9-B , 11-B ) :   0.4477 B( 10-B , 11-B ) :   0.2064 


-------
TIMINGS
-------

Total SCF time: 0 days 0 hours 0 min 14 sec 

Total time                  ....      14.928 sec
Sum of individual times     ....      14.469 sec  ( 96.9%)

SCF preparation             ....       0.498 sec  (  3.3%)
Fock matrix formation       ....      11.543 sec  ( 77.3%)
  Startup                   ....       0.038 sec  (  0.3% of F)
  Split-RI-J                ....       4.115 sec  ( 35.6% of F)
  XC integration            ....       6.721 sec  ( 58.2% of F)
    XC Preparation          ....       0.000 sec  (  0.0% of XC)
    Basis function eval.    ....       1.806 sec  ( 26.9% of XC)
    Density eval.           ....       0.953 sec  ( 14.2% of XC)
    XC-Functional eval.     ....       0.282 sec  (  4.2% of XC)
    XC-Potential eval.      ....       1.055 sec  ( 15.7% of XC)
Diagonalization             ....       0.000 sec  (  0.0%)
Density matrix formation    ....       0.330 sec  (  2.2%)
Total Energy calculation    ....       0.162 sec  (  1.1%)
Population analysis         ....       0.031 sec  (  0.2%)
Orbital Transformation      ....       0.039 sec  (  0.3%)
Orbital Orthonormalization  ....       0.000 sec  (  0.0%)
DIIS solution               ....       1.185 sec  (  7.9%)
SOSCF solution              ....       0.682 sec  (  4.6%)
Finished LeanSCF after  15.0 sec

Maximum memory used throughout the entire LEANSCF-calculation: 9.4 MB


-------------------------------------------------------------------------------
                          DFT DISPERSION CORRECTION                            
                                                                               
                              DFTD3 V3.1  Rev 1                                
                          USING Becke-Johnson damping                          
-------------------------------------------------------------------------------
The BP86 functional is recognized
Active option DFTDOPT                   ...         4   

molecular C6(AA) [au] = 9536.007010 


            DFT-D V3
 parameters
 s6 scaling factor         :     1.0000 
 a1 scaling factor         :     0.3946 
 s8 scaling factor         :     3.2822 
 a2 scaling factor         :     4.8516 
 ad hoc parameters k1-k3   :    16.0000     1.3333    -4.0000 

 Edisp/kcal,au: -20.871608226732  -0.033261021328 
 E6   /kcal   :  -6.430372810 
 E8   /kcal   : -14.441235417 
 % E8         :  69.190812995 

-------------------------   ----------------
Dispersion correction           -0.033261021
-------------------------   ----------------


-------------------------   --------------------
FINAL SINGLE POINT ENERGY      -296.583956062390
-------------------------   --------------------



           ************************************************************
           *        Program running with 8 parallel MPI-processes     *
           *              working on a common directory               *
           ************************************************************
------------------------------------------------------------------------------
                         ORCA SCF GRADIENT CALCULATION
------------------------------------------------------------------------------

Nuc. rep. gradient        (SHARK) ... done (  0.0 sec)
HCore & Overlap gradient  (SHARK) ... done (  0.0 sec)
Split-RIJ-J gradient      (SHARK) ... done (  0.3 sec)
XC gradient                       ... done (  0.6 sec)
Dispersion correction             ... done (  0.1 sec)

-------------------
DISPERSION GRADIENT
-------------------

   1   B   :   -0.001160857    0.001723717    0.000000000
   2   B   :   -0.000932801    0.000157380    0.001549326
   3   B   :   -0.000932801    0.000157380   -0.001549326
   4   B   :   -0.000700464   -0.001376140   -0.000000000
   5   B   :    0.000396198   -0.001147770    0.000000000
   6   B   :    0.000442323    0.000233183   -0.001241707
   7   B   :    0.000442323    0.000233183    0.001241707
   8   B   :    0.000588560    0.001317074    0.000000000
   9   B   :    0.000450660   -0.000927758    0.000878563
  10   B   :    0.000450660   -0.000927758   -0.000878563
  11   B   :    0.000478099    0.000278754   -0.000971702
  12   B   :    0.000478099    0.000278754    0.000971702

Difference to translation invariance:
           :    0.0000000000   -0.0000000000   -0.0000000000

Difference to rotation invariance:
           :    0.0000000000   -0.0000000000   -0.0000000000

Norm of the Dispersion gradient    ...    0.0051580352
RMS gradient                       ...    0.0008596725
MAX gradient                       ...    0.0017237167

------------------
CARTESIAN GRADIENT
------------------

   1   B   :   -0.003542724   -0.013554625   -0.000000710
   2   B   :   -0.011427823    0.002534594   -0.008736002
   3   B   :   -0.011427999    0.002534527    0.008737297
   4   B   :   -0.013748599   -0.000865915   -0.000000670
   5   B   :   -0.004657649    0.003082043   -0.000000572
   6   B   :    0.023229843   -0.011068009   -0.011962203
   7   B   :    0.023231042   -0.011069531    0.011962384
   8   B   :    0.014042945    0.016060069   -0.000000016
   9   B   :    0.007635018   -0.021857173   -0.015577664
  10   B   :    0.007635304   -0.021857127    0.015578529
  11   B   :   -0.015484202    0.028029838   -0.013603347
  12   B   :   -0.015485153    0.028031309    0.013602974

Difference to translation invariance:
           :    0.0000000000    0.0000000000   -0.0000000000

Difference to rotation invariance:
           :   -0.0000007340    0.0000004042   -0.0000098642

Norm of the Cartesian gradient     ...    0.0829945479
RMS gradient                       ...    0.0138324246
MAX gradient                       ...    0.0280313093

-------
TIMINGS
-------

Total SCF gradient time     ....        1.017 sec

Densities                   ....       0.001 sec  (  0.1%)
One electron gradient       ....       0.041 sec  (  4.0%)
RI-J Coulomb gradient       ....       0.300 sec  ( 29.5%)
XC gradient                 ....       0.613 sec  ( 60.3%)

Maximum memory used throughout the entire SCFGRAD-calculation: 29.2 MB
------------------------------------------------------------------------------
                         ORCA GEOMETRY RELAXATION STEP
------------------------------------------------------------------------------

Reading the OPT-File                    .... done
Getting information on internals        .... done
Copying old internal coords+grads       .... done
Making the new internal coordinates     .... (2022 redundants) done
Validating the new internal coordinates .... (2022 redundants) done
Calculating the B-matrix                .... done
Calculating the G,G- and P matrices     .... done
Transforming gradient to internals      .... done
Projecting the internal gradient        .... done
Number of atoms                         ....  12
Number of internal coordinates          ....  67
Current Energy                          ....  -296.583956062 Eh
Current gradient norm                   ....     0.082994548 Eh/bohr
Maximum allowed component of the step   ....  0.300
Current trust radius                    ....  0.300
Evaluating the initial hessian          ....  (Almloef) done
Projecting the Hessian                  .... done
Forming the augmented Hessian           .... done
Diagonalizing the augmented Hessian     .... done
Last element of RFO vector              ....  0.777512420
Lowest eigenvalues of augmented Hessian:
 -0.048179365  0.010000000  0.010000000  0.010000000  0.010000000
Length of the computed step             ....  0.808819983
Warning: the length of the step is outside the trust region - taking restricted step instead
The input lambda is                     ....     0.009000
   iter:   5  x=    0.002307  g=28144.915897 f(x)=    72.801944
   iter:  10  x=   -0.049036  g=   64.886416 f(x)=     1.261259
   iter:  15  x=   -0.164278  g=    0.956941 f(x)=     0.003491
The output lambda is                    ....    -0.164391 (19 iterations)
The final length of the internal step   ....  0.300000000
Converting the step to Cartesian space:
 Initial RMS(Int)=    0.0366508333
Transforming coordinates:
 Iter   0:  RMS(Cart)=    0.0778683784 RMS(Int)=    0.0364766023
done
Storing new coordinates                 .... done

                                .--------------------.
          ----------------------|Geometry convergence|-------------------------
          Item                value                   Tolerance       Converged
          ---------------------------------------------------------------------
          RMS gradient        0.0095158816            0.0001000000      NO
          MAX gradient        0.0266635190            0.0003000000      NO
          RMS step            0.0366508333            0.0020000000      NO
          MAX step            0.1300546945            0.0040000000      NO
          -------------------------------------------------------------------------
          ........................................................
          Max(Bonds)      0.0688      Max(Angles)    3.49
          Max(Dihed)        2.61      Max(Improp)    0.00
          ---------------------------------------------------------------------

The optimization has not yet converged - more geometry cycles are needed


    ---------------------------------------------------------------------------
                         Redundant Internal Coordinates
                            (Angstroem and degrees)

        Definition                    Value    dE/dq     Step     New-Value
    ----------------------------------------------------------------------------
     1. B(B   1,B   0)                1.6000  0.014341 -0.0139    1.5861   
     2. B(B   2,B   0)                1.6000  0.014342 -0.0139    1.5861   
     3. B(B   3,B   2)                1.6000  0.011758 -0.0111    1.5889   
     4. B(B   3,B   1)                1.6000  0.011757 -0.0111    1.5889   
     5. B(B   4,B   0)                3.2000  0.011361 -0.0336    3.1664   
     6. B(B   5,B   1)                3.2000  0.013306 -0.0408    3.1592   
     7. B(B   6,B   2)                3.2000  0.013306 -0.0408    3.1592   
     8. B(B   7,B   3)                3.2000  0.021286 -0.0646    3.1354   
     9. B(B   8,B   4)                1.6000  0.026663 -0.0254    1.5746   
    10. B(B   9,B   4)                1.6000  0.026664 -0.0254    1.5746   
    11. B(B  10,B   5)                1.6000 -0.018332  0.0174    1.6174   
    12. B(B  10,B   8)                3.2000  0.022686 -0.0688    3.1312   
    13. B(B  11,B   9)                3.2000  0.022686 -0.0688    3.1312   
    14. B(B  11,B   6)                1.6000 -0.018334  0.0174    1.6174   
    15. A(B   1,B   0,B   4)          120.00  0.002191   -0.56    119.44   
    16. A(B   2,B   0,B   4)          120.00  0.002191   -0.56    119.44   
    17. A(B   1,B   0,B   2)           90.00  0.000631   -0.04     89.96   
    18. A(B   0,B   1,B   3)           90.00 -0.001485    0.14     90.14   
    19. A(B   3,B   1,B   5)          120.00  0.004806   -0.88    119.12   
    20. A(B   0,B   1,B   5)          120.00  0.000421   -0.04    119.96   
    21. A(B   3,B   2,B   6)          120.00  0.004806   -0.88    119.12   
    22. A(B   0,B   2,B   6)          120.00  0.000421   -0.04    119.96   
    23. A(B   0,B   2,B   3)           90.00 -0.001486    0.14     90.14   
    24. A(B   2,B   3,B   7)          120.00  0.001653   -0.54    119.46   
    25. A(B   1,B   3,B   7)          120.00  0.001653   -0.54    119.46   
    26. A(B   1,B   3,B   2)           90.00  0.002340   -0.24     89.76   
    27. A(B   0,B   4,B   9)          120.00 -0.005743    0.41    120.41   
    28. A(B   8,B   4,B   9)           90.00  0.020173   -3.49     86.51   
    29. A(B   0,B   4,B   8)          120.00 -0.005743    0.41    120.41   
    30. A(B   1,B   5,B  10)          120.00 -0.002025    0.51    120.51   
    31. A(B   2,B   6,B  11)          120.00 -0.002025    0.51    120.51   
    32. A(B   4,B   8,B  10)          120.00 -0.001242    0.60    120.60   
    33. A(B   4,B   9,B  11)          120.00 -0.001242    0.60    120.60   
    34. A(B   5,B  10,B   8)          120.00  0.006398   -0.91    119.09   
    35. A(B   6,B  11,B   9)          120.00  0.006398   -0.91    119.09   
    36. D(B   3,B   1,B   0,B   2)      0.00  0.001860   -0.45     -0.45   
    37. D(B   3,B   1,B   0,B   4)   -125.26 -0.002164    0.49   -124.77   
    38. D(B   5,B   1,B   0,B   2)    125.26  0.006867   -1.44    123.82   
    39. D(B   5,B   1,B   0,B   4)      0.00  0.002843   -0.50     -0.50   
    40. D(B   3,B   2,B   0,B   4)    125.26  0.002164   -0.49    124.77   
    41. D(B   3,B   2,B   0,B   1)      0.00 -0.001860    0.45      0.45   
    42. D(B   6,B   2,B   0,B   4)     -0.00 -0.002843    0.50      0.50   
    43. D(B   6,B   2,B   0,B   1)   -125.26 -0.006867    1.44   -123.82   
    44. D(B   1,B   3,B   2,B   6)    125.26  0.003287   -0.76    124.50   
    45. D(B   1,B   3,B   2,B   0)      0.00  0.001860   -0.45     -0.45   
    46. D(B   7,B   3,B   1,B   5)      0.00  0.001068   -0.28     -0.28   
    47. D(B   7,B   3,B   1,B   0)    125.26  0.002495   -0.60    124.67   
    48. D(B   2,B   3,B   1,B   5)   -125.26 -0.003287    0.76   -124.50   
    49. D(B   7,B   3,B   2,B   0)   -125.26 -0.002495    0.60   -124.67   
    50. D(B   2,B   3,B   1,B   0)      0.00 -0.001860    0.45      0.45   
    51. D(B   7,B   3,B   2,B   6)     -0.00 -0.001068    0.28      0.28   
    52. D(B   9,B   4,B   0,B   2)     -0.00  0.007340   -1.64     -1.64   
    53. D(B   9,B   4,B   0,B   1)    109.47  0.011811   -2.61    106.86   
    54. D(B   8,B   4,B   0,B   2)   -109.47 -0.011811    2.61   -106.86   
    55. D(B   8,B   4,B   0,B   1)      0.00 -0.007340    1.64      1.64   
    56. D(B  10,B   5,B   1,B   3)    109.47  0.003409   -0.95    108.53   
    57. D(B  10,B   5,B   1,B   0)     -0.00  0.001242   -0.39     -0.39   
    58. D(B  11,B   6,B   2,B   3)   -109.47 -0.003409    0.95   -108.53   
    59. D(B  11,B   6,B   2,B   0)      0.00 -0.001242    0.39      0.39   
    60. D(B  10,B   8,B   4,B   0)     -0.00  0.006124   -1.52     -1.52   
    61. D(B  10,B   8,B   4,B   9)   -125.26  0.001238    0.27   -125.00   
    62. D(B  11,B   9,B   4,B   0)      0.00 -0.006125    1.52      1.52   
    63. D(B  11,B   9,B   4,B   8)    125.26 -0.001238   -0.27    125.00   
    64. D(B   5,B  10,B   8,B   4)      0.00 -0.002039    0.63      0.63   
    65. D(B   8,B  10,B   5,B   1)      0.00 -0.002458    0.51      0.51   
    66. D(B   9,B  11,B   6,B   2)     -0.00  0.002458   -0.51     -0.51   
    67. D(B   6,B  11,B   9,B   4)     -0.00  0.002039   -0.64     -0.64   
    ----------------------------------------------------------------------------

Geometry step timings:
Preparation and reading OPT file:      0.000 s ( 2.105 %)
Internal coordinates            :      0.000 s ( 2.431 %)
B/P matrices and projection     :      0.001 s (25.188 %)
Hessian update/contruction      :      0.001 s (13.058 %)
Making the step                 :      0.001 s (35.288 %)
Converting the step to Cartesian:      0.000 s ( 4.712 %)
Storing new data                :      0.000 s ( 1.930 %)
Checking convergence            :      0.000 s ( 1.253 %)
Final printing                  :      0.001 s (14.035 %)
Total time                      :      0.004 s

Time for energy+gradient        :     19.442 s
Time for complete geometry iter :     20.036 s

         *************************************************************
         *                GEOMETRY OPTIMIZATION CYCLE   2            *
         *************************************************************
---------------------------------
CARTESIAN COORDINATES (ANGSTROEM)
---------------------------------
  B     -1.903710   -0.376470    0.000001
  B     -1.887831    0.745436   -1.121106
  B     -1.887831    0.745436    1.121106
  B     -1.884361    1.871285    0.000000
  B      0.342570   -2.608204    0.000000
  B      0.386618    0.752274   -3.313600
  B      0.386618    0.752275    3.313600
  B      0.379762    4.040280   -0.000000
  B      1.489112   -2.584711   -1.079013
  B      1.489112   -2.584711    1.079012
  B      1.544971   -0.376445   -3.298182
  B      1.544971   -0.376446    3.298183

----------------------------
CARTESIAN COORDINATES (A.U.)
----------------------------
  NO LB      ZA    FRAG     MASS         X           Y           Z
   0 B     5.0000    0    10.810   -3.597491   -0.711425    0.000001
   1 B     5.0000    0    10.810   -3.567484    1.408670   -2.118583
   2 B     5.0000    0    10.810   -3.567483    1.408671    2.118583
   3 B     5.0000    0    10.810   -3.560927    3.536216    0.000000
   4 B     5.0000    0    10.810    0.647363   -4.928792    0.000000
   5 B     5.0000    0    10.810    0.730603    1.421592   -6.261796
   6 B     5.0000    0    10.810    0.730602    1.421595    6.261796
   7 B     5.0000    0    10.810    0.717646    7.635022   -0.000000
   8 B     5.0000    0    10.810    2.814013   -4.884396   -2.039039
   9 B     5.0000    0    10.810    2.814014   -4.884396    2.039037
  10 B     5.0000    0    10.810    2.919572   -0.711377   -6.232661
  11 B     5.0000    0    10.810    2.919572   -0.711379    6.232662

--------------------------------
INTERNAL COORDINATES (ANGSTROEM)
--------------------------------
 B      0   0   0     0.000000000000     0.00000000     0.00000000
 B      1   0   0     1.586128850587     0.00000000     0.00000000
 B      1   2   0     1.586128251996    89.95337922     0.00000000
 B      3   1   2     1.588843741115    90.14264628     0.44949159
 B      1   2   3     3.166451070906   119.43419644   235.68104257
 B      2   1   3     3.159144857735   119.95251180   123.81701535
 B      3   1   2     3.159144573628   119.95250212   236.18295672
 B      4   3   1     3.135409780336   119.45666584   235.32982362
 B      5   1   2     1.574604605651   120.39980892     1.64322403
 B      5   1   2     1.574603913752   120.39983206   106.85739548
 B      6   2   1     1.617412982711   120.49679972   359.61252631
 B      7   3   1     1.617414741531   120.49677418     0.38746488

---------------------------
INTERNAL COORDINATES (A.U.)
---------------------------
 B      0   0   0     0.000000000000     0.00000000     0.00000000
 B      1   0   0     2.997349140721     0.00000000     0.00000000
 B      1   2   0     2.997348009549    89.95337922     0.00000000
 B      3   1   2     3.002479540302    90.14264628     0.44949159
 B      1   2   3     5.983725340475   119.43419644   235.68104257
 B      2   1   3     5.969918598505   119.95251180   123.81701535
 B      3   1   2     5.969918061620   119.95250212   236.18295672
 B      4   3   1     5.925065802452   119.45666584   235.32982362
 B      5   1   2     2.975571473891   120.39980892     1.64322403
 B      5   1   2     2.975570166391   120.39983206   106.85739548
 B      6   2   1     3.056467582773   120.49679972   359.61252631
 B      7   3   1     3.056470906460   120.49677418     0.38746488



           ************************************************************
           *        Program running with 8 parallel MPI-processes     *
           *              working on a common directory               *
           ************************************************************
------------------------------------------------------------------------------
                   ___                                                        
                  /   \      - P O W E R E D   B Y -                         
                 /     \                                                     
                 |  |  |   _    _      __       _____    __    __             
                 |  |  |  | |  | |    /  \     |  _  \  |  |  /  |          
                  \  \/   | |  | |   /    \    | | | |  |  | /  /          
                 / \  \   | |__| |  /  /\  \   | |_| |  |  |/  /          
                |  |  |   |  __  | /  /__\  \  |    /   |      \           
                |  |  |   | |  | | |   __   |  |    \   |  |\   \          
                \     /   | |  | | |  |  |  |  | |\  \  |  | \   \       
                 \___/    |_|  |_| |__|  |__|  |_| \__\ |__|  \__/        
                                                                              
[...]
      px      :     0.777406
      py      :     0.440185
      dz2     :     0.018761  d :     0.086073
      dxz     :     0.017836
      dyz     :     0.015838
      dx2y2   :     0.014351
      dxy     :     0.019287

  8 B s       :     3.325178  s :     3.325178
      pz      :     0.582826  p :     1.913855
      px      :     0.708257
      py      :     0.622772
      dz2     :     0.008562  d :     0.047118
      dxz     :     0.007546
      dyz     :     0.008999
      dx2y2   :     0.011560
      dxy     :     0.010450

  9 B s       :     2.712389  s :     2.712389
      pz      :     0.503518  p :     1.916904
      px      :     0.718817
      py      :     0.694570
      dz2     :     0.017280  d :     0.079584
      dxz     :     0.015025
      dyz     :     0.013786
      dx2y2   :     0.017606
      dxy     :     0.015888

 10 B s       :     2.418553  s :     2.418553
      pz      :     0.677432  p :     2.030858
      px      :     0.529079
      py      :     0.824348
      dz2     :     0.010086  d :     0.050092
      dxz     :     0.010827
      dyz     :     0.009681
      dx2y2   :     0.009011
      dxy     :     0.010487

 11 B s       :     3.234460  s :     3.234460
      pz      :     0.778737  p :     1.855619
      px      :     0.544164
      py      :     0.532718
      dz2     :     0.011932  d :     0.055760
      dxz     :     0.012657
      dyz     :     0.007165
      dx2y2   :     0.009922
      dxy     :     0.014084



                     *******************************
                     * LOEWDIN POPULATION ANALYSIS *
                     *******************************

----------------------
LOEWDIN ATOMIC CHARGES
----------------------
   0 B :    0.028360
   1 B :   -0.042118
   2 B :   -0.020874
   3 B :   -0.057330
   4 B :   -0.023257
   5 B :    0.146895
   6 B :   -0.070066
   7 B :    0.071154
   8 B :    0.013945
   9 B :    0.048822
  10 B :   -0.125582
  11 B :    0.030051

-------------------------------
LOEWDIN REDUCED ORBITAL CHARGES
-------------------------------
  0 B s       :     2.670388  s :     2.670388
      pz      :     0.626028  p :     2.140667
      px      :     0.656711
      py      :     0.857928
      dz2     :     0.017794  d :     0.160585
      dxz     :     0.025141
      dyz     :     0.038343
      dx2y2   :     0.043926
      dxy     :     0.035381

  1 B s       :     2.731712  s :     2.731712
      pz      :     0.792820  p :     2.179800
      px      :     0.814156
      py      :     0.572824
      dz2     :     0.034168  d :     0.130606
      dxz     :     0.038382
      dyz     :     0.025437
      dx2y2   :     0.019749
      dxy     :     0.012871

  2 B s       :     2.672232  s :     2.672232
      pz      :     0.749742  p :     2.181518
      px      :     0.783677
      py      :     0.648099
      dz2     :     0.033479  d :     0.167124
      dxz     :     0.042383
      dyz     :     0.035862
      dx2y2   :     0.022538
      dxy     :     0.032862

  3 B s       :     2.679516  s :     2.679516
      pz      :     0.879219  p :     2.226944
      px      :     0.602258
      py      :     0.745468
      dz2     :     0.020381  d :     0.150870
      dxz     :     0.039286
      dyz     :     0.027525
      dx2y2   :     0.037633
      dxy     :     0.026045

  4 B s       :     2.783894  s :     2.783894
      pz      :     0.623932  p :     2.124677
      px      :     0.917246
      py      :     0.583500
      dz2     :     0.009604  d :     0.114686
      dxz     :     0.022712
      dyz     :     0.020791
      dx2y2   :     0.030339
      dxy     :     0.031240

  5 B s       :     2.818994  s :     2.818994
      pz      :     0.629225  p :     1.926045
      px      :     0.880283
      py      :     0.416538
      dz2     :     0.021791  d :     0.108065
      dxz     :     0.027260
      dyz     :     0.017802
      dx2y2   :     0.022123
      dxy     :     0.019089

  6 B s       :     2.692353  s :     2.692353
      pz      :     0.680022  p :     2.226810
      px      :     0.904277
      py      :     0.642511
      dz2     :     0.034159  d :     0.150903
      dxz     :     0.039883
      dyz     :     0.032789
      dx2y2   :     0.018703
      dxy     :     0.025369

  7 B s       :     2.599837  s :     2.599837
      pz      :     0.840187  p :     2.112142
      px      :     0.804735
      py      :     0.467219
      dz2     :     0.054281  d :     0.216867
      dxz     :     0.050889
      dyz     :     0.036276
      dx2y2   :     0.035636
      dxy     :     0.039786

  8 B s       :     2.794980  s :     2.794980
      pz      :     0.642986  p :     2.077581
      px      :     0.794577
      py      :     0.640018
      dz2     :     0.019400  d :     0.113494
      dxz     :     0.019792
      dyz     :     0.021965
      dx2y2   :     0.028866
      dxy     :     0.023470

  9 B s       :     2.599673  s :     2.599673
      pz      :     0.650912  p :     2.153632
      px      :     0.736772
      py      :     0.765947
      dz2     :     0.034731  d :     0.197873
      dxz     :     0.039986
      dyz     :     0.037104
      dx2y2   :     0.043553
      dxy     :     0.042498

 10 B s       :     2.723145  s :     2.723145
      pz      :     0.742414  p :     2.275068
      px      :     0.606226
      py      :     0.926428
      dz2     :     0.026452  d :     0.127368
      dxz     :     0.024330
      dyz     :     0.027910
      dx2y2   :     0.022199
      dxy     :     0.026477

 11 B s       :     2.771593  s :     2.771593
      pz      :     0.823818  p :     2.065680
      px      :     0.665329
      py      :     0.576534
      dz2     :     0.031584  d :     0.132676
      dxz     :     0.029104
      dyz     :     0.017596
      dx2y2   :     0.021016
      dxy     :     0.033376



                      *****************************
                      * MAYER POPULATION ANALYSIS *
                      *****************************

  NA   - Mulliken gross atomic population
  ZA   - Total nuclear charge
  QA   - Mulliken gross atomic charge
  VA   - Mayer's total valence
  BVA  - Mayer's bonded valence
  FA   - Mayer's free valence

  ATOM       NA         ZA         QA         VA         BVA        FA
  0 B      4.8193     5.0000     0.1807     3.7266     3.7266    -0.0000
  1 B      5.1228     5.0000    -0.1228     3.6695     3.6695     0.0000
  2 B      5.0341     5.0000    -0.0341     3.9090     3.9090     0.0000
  3 B      5.0609     5.0000    -0.0609     3.7199     3.7199    -0.0000
  4 B      5.2896     5.0000    -0.2896     3.3423     3.3423    -0.0000
  5 B      5.1935     5.0000    -0.1935     3.4440     3.4440    -0.0000
  6 B      5.1769     5.0000    -0.1769     3.5406     3.5406     0.0000
  7 B      4.6627     5.0000     0.3373     3.1154     3.1154    -0.0000
  8 B      5.2862     5.0000    -0.2862     3.6036     3.6036    -0.0000
  9 B      4.7089     5.0000     0.2911     3.2627     3.2627    -0.0000
 10 B      4.4995     5.0000     0.5005     3.4882     3.4882    -0.0000
 11 B      5.1458     5.0000    -0.1458     3.6972     3.6972     0.0000

  Mayer bond orders larger than 0.100000
B(  0-B ,  1-B ) :   0.4417 B(  0-B ,  2-B ) :   0.5046 B(  0-B ,  3-B ) :   0.5630 
B(  0-B ,  4-B ) :   1.1709 B(  0-B ,  5-B ) :   0.1446 B(  0-B ,  7-B ) :   0.1094 
B(  0-B ,  8-B ) :   0.1545 B(  0-B ,  9-B ) :   0.4852 B(  0-B , 11-B ) :   0.1043 
B(  1-B ,  2-B ) :   0.1461 B(  1-B ,  3-B ) :   1.2977 B(  1-B ,  5-B ) :   1.0753 
B(  1-B ,  6-B ) :   0.1084 B(  1-B ,  7-B ) :   0.3691 B(  2-B ,  3-B ) :   1.0194 
B(  2-B ,  5-B ) :   0.1106 B(  2-B ,  6-B ) :   1.1113 B(  2-B ,  7-B ) :   0.4480 
B(  2-B ,  9-B ) :   0.3812 B(  3-B ,  5-B ) :   0.1003 B(  3-B ,  6-B ) :   0.1221 
B(  3-B ,  7-B ) :   0.3852 B(  3-B , 11-B ) :   0.1124 B(  4-B ,  5-B ) :   0.1091 
B(  4-B ,  8-B ) :   1.3356 B(  4-B ,  9-B ) :   0.4016 B(  5-B ,  7-B ) :   0.3634 
B(  5-B ,  8-B ) :   0.2880 B(  5-B ,  9-B ) :   0.1108 B(  5-B , 10-B ) :   0.8712 
B(  5-B , 11-B ) :   0.2131 B(  6-B ,  7-B ) :   0.5198 B(  6-B ,  9-B ) :   0.4274 
B(  6-B , 11-B ) :   1.0749 B(  7-B ,  9-B ) :   0.3202 B(  7-B , 11-B ) :   0.4080 
B(  8-B ,  9-B ) :   0.4393 B(  8-B , 10-B ) :   0.9742 B(  8-B , 11-B ) :   0.2050 
B(  9-B , 10-B ) :   0.1911 B(  9-B , 11-B ) :   0.3980 B( 10-B , 11-B ) :   1.0852 


-------
TIMINGS
-------

Total SCF time: 0 days 0 hours 0 min 7 sec 

Total time                  ....       7.199 sec
Sum of individual times     ....       6.823 sec  ( 94.8%)

SCF preparation             ....       0.683 sec  (  9.5%)
Fock matrix formation       ....       3.992 sec  ( 55.5%)
  Startup                   ....       0.017 sec  (  0.4% of F)
  Split-RI-J                ....       1.140 sec  ( 28.6% of F)
  XC integration            ....       2.589 sec  ( 64.8% of F)
    Basis function eval.    ....       0.408 sec  ( 15.7% of XC)
    Density eval.           ....       0.332 sec  ( 12.8% of XC)
    XC-Functional eval.     ....       0.050 sec  (  1.9% of XC)
    XC-Potential eval.      ....       0.421 sec  ( 16.3% of XC)
Diagonalization             ....       0.000 sec  (  0.0%)
Density matrix formation    ....       0.387 sec  (  5.4%)
Total Energy calculation    ....       0.191 sec  (  2.7%)
Population analysis         ....       0.304 sec  (  4.2%)
Orbital Transformation      ....       0.025 sec  (  0.3%)
Orbital Orthonormalization  ....       0.000 sec  (  0.0%)
DIIS solution               ....       0.025 sec  (  0.3%)
SOSCF solution              ....       1.216 sec  ( 16.9%)
Finished LeanSCF after   7.6 sec

Maximum memory used throughout the entire LEANSCF-calculation: 15.6 MB


-------------------------------------------------------------------------------
                          DFT DISPERSION CORRECTION                            
                                                                               
                              DFTD3 V3.1  Rev 1                                
                          USING Becke-Johnson damping                          
-------------------------------------------------------------------------------
The BP86 functional is recognized
Active option DFTDOPT                   ...         4   

molecular C6(AA) [au] = 4285.314721 


            DFT-D V3
 parameters
 s6 scaling factor         :     1.0000 
 a1 scaling factor         :     0.3946 
 s8 scaling factor         :     3.2822 
 a2 scaling factor         :     4.8516 
 ad hoc parameters k1-k3   :    16.0000     1.3333    -4.0000 

 Edisp/kcal,au: -23.943205768931  -0.038155923065 
 E6   /kcal   :  -6.810251934 
 E8   /kcal   : -17.132953835 
 % E8         :  71.556641164 

-------------------------   ----------------
Dispersion correction           -0.038155923
-------------------------   ----------------


-------------------------   --------------------
FINAL SINGLE POINT ENERGY      -297.658206409484
-------------------------   --------------------

                                *** OPTIMIZATION RUN DONE ***



           ************************************************************
           *        Program running with 8 parallel MPI-processes     *
           *              working on a common directory               *
           ************************************************************

------------------------------------------------------------------------------
                              ORCA PROPERTY CALCULATIONS
------------------------------------------------------------------------------

GBWName                                 ... trunc_tetrahedron_nn1.60.gbw
Number of atoms                         ...     12
Number of basis functions               ...    168
Max core memory                         ...   2500 MB

Electric properties:
Dipole moment                           ... YES
Quadrupole moment                       ...  NO
Static polarizability (Dipole/Dipole)   ...  NO
Static polarizability (Dipole/Quad.)    ...  NO
Static polarizability (Quad./Quad.)     ...  NO
Static polarizability (Velocity)        ...  NO
Static hyperpolarizability              ...  NO

Atomic electric properties:
Dipole moment                           ...  NO
Quadrupole moment                       ...  NO
Static polarizability                   ...  NO

Choice of electric origin               ... Center of mass
Position of electric origin             ...     0.000000    -0.000000     0.000000

General magnetic properties:
Magnetizability                         ...  NO

EPR properties:
g-Tensor (aka g-matrix)                 ...  NO
Zero-Field splitting spin-orbit         ...  NO
Zero-field splitting spin-spin          ...  NO
Hyperfine couplings                     ...  NO (   0 nuclei)
Quadrupole couplings                    ...  NO (   0 nuclei)
Contact density                         ...  NO (   0 nuclei)

NMR properties:
Chemical shifts                         ...  NO (   0 nuclei)
Spin-rotation constants                 ...  NO (   0 nuclei)
Spin-spin couplings                     ...  NO (   0 nuclei,    0 pairs)

Choice of magnetic origin               ... GIAO
Position of magnetic origin             ...     0.000000     0.000000     0.000000

Properties with geometric perturbations:
SCF Hessian                             ...  NO
IR spectrum                             ...  NO
VCD spectrum                            ...  NO
X-ray spectroscopy properties:
SCF XES/XAS/RIXS spectra                ...  NO

SCF SOC stabilization energy            ...  NO
Diagonal Born-Oppenheimer correction    ...  NO

-------------
DIPOLE MOMENT
-------------

Method             : SCF
Type of density    : Electron Density
Multiplicity       :   1
Irrep              :   0
Energy             :  -297.6200504864190748 Eh
Basis              : AO
                                X                 Y                 Z
Electronic contribution:      0.030682582       0.198108887       0.195616407
Nuclear contribution   :     -0.000000000       0.000000000       0.000000000
                        -----------------------------------------
Total Dipole Moment    :      0.030682582       0.198108887       0.195616407
                        -----------------------------------------
Magnitude (a.u.)       :      0.280097003
Magnitude (Debye)      :      0.711950001



--------------------
Rotational spectrum 
--------------------
 
Rotational constants in cm-1:             0.073957             0.058806             0.053199 
Rotational constants in MHz :          2217.168211          1762.947301          1594.866673 

Dipole components along the rotational axes: 
x,y,z [a.u.] :    -0.127335    -0.249304     0.009368 
x,y,z [Debye]:    -0.323660    -0.633680     0.023812 

 

Dipole moment calculation done in   0.1 sec 

Maximum memory used throughout the entire PROP-calculation: 11.6 MB

--------------------------------
SUGGESTED CITATIONS FOR THIS RUN
--------------------------------

Below you find a list of papers that are relevant to this ORCA run
We neither can nor want to force you to cite these papers, but we appreciate if you do
You receive ORCA, which is the product of decades of hard work by many enthusiastic individuals, for free
The only thing we kindly ask in return is that you cite our papers,
We deeply appreciate it, if you show your appreciation for ORCA by not just citing the generic ORCA reference.

Please note that relegating all ORCA citations to the supporting information does *not* help us.
SI sections are not indexed - citations you put there will not count into any citation statistics
But we need these citations in order to attract the funding resources that allow us to do what we are doing

Therefore, if you are a happy ORCA user, please consider citing a few of the papers listed below in the main body of your paper

In addition to the list printed below, the program has created the file trunc_tetrahedron_nn1.60.bibtex that contains the list in bibtex format
You can import this file easily into all common literature databanks and citation aid programs

It goes without saying that in many instances, there are alternative algorithms to achieve similar
results as the ones you have gotten from ORCA. It is, of course, also the case that in some instances
ORCA just re-implements algorithms worked out by others. We are fully aware of that and we are also
fully appreciative of our colleagues work. Hence this citation list should not be read as indicating
that the listed papers, which are focused on our own work, are the only ones worth citing. It simply
meant to make it easier for users to cite ORCA specific papers. It is not a substitute for doing your
own literature research and citing the relevant literature in a scientifically appropriate manner.

List of essential papers. We consider these as the minimum necessary citations

  1. Neese, F.
     Software update: the ORCA program system, version 6.0
     WIRES Comput. Molec. Sci. 2025 15(1), e70019
     doi.org/10.1002/wcms.70019

List of papers to cite with high priority. The work reported in these papers was absolutely
necessary for this run to complete.
Our perspective: the developers of density functionals and basis sets usually get cited in chemistry papers
Good! But without the algorithms to do something with them, the functionals or basis sets would not do anything.
Hence, in our opinion, the algorithm design and method developments papers are equally worthy of getting cited

  1. Neese, F.
     An improvement of the resolution of the identity approximation for the formation of the Coulomb matrix
     J. Comp. Chem. 2003 24(14), 1740-1747
     doi.org/10.1002/jcc.10318
  2. Grimme, S.; Antony, J.; Ehrlich, S.; Krieg, H.
     A consistent and accurate ab initio parametrization of density functional dispersion correction (DFT-D) for the 94 elements H-Pu
     J. Chem. Phys. 2010 132 , 154104
     doi.org/10.1063/1.3382344
  3. Grimme, S.; Ehrlich, S.; Goerigk, L.
     Effect of the damping function in dispersion corrected density functional theory
     J. Comput. Chem. 2011 32(7), 1456-1465
     doi.org/10.1002/jcc.21759
  4. Neese, F.
     The SHARK Integral Generation and Digestion System
     J. Comp. Chem. 2022 44(3), 381
     doi.org/10.1002/jcc.26942

List of suggested additional citations. These are papers that are important in the 'surrounding' of 
of this run, or papers that preceded the highly important papers. If you like your results we are grateful for a citation.

  1. Neese, F.
     The ORCA program system
     WIRES Comput. Molec. Sci. 2012 2(1), 73-78
     doi.org/10.1002/wcms.81
  2. Neese, F.
     Software update: the ORCA program system, version 4.0
     WIRES Comput. Molec. Sci. 2018 8(1), 1-6
     doi.org/10.1002/wcms.1327
  3. Neese, F.; Wennmohs, F.; Becker, U.; Riplinger, C.
     The ORCA quantum chemistry program package
     J. Chem. Phys. 2020 152(22), 224108
     doi.org/10.1063/5.0004608
  4. Neese, F.
     Software update: The ORCA program system—Version 5.0
     WIRES Comput. Molec. Sci. 2022 12(1), e1606
     doi.org/10.1002/wcms.1606

List of optional additional citations

  1. Neese, F.
     Approximate second-order SCF convergence for spin unrestricted wavefunctions
     Chem. Phys. Lett. 2000 325(1-3), 93-98
     doi.org/10.1016/s0009-2614(00)00662-x

Timings for individual modules:

Sum of individual times          ...     1173.425 sec (=  19.557 min)
Startup calculation              ...      152.945 sec (=   2.549 min)  13.0 %
SCF iterations                   ...      795.006 sec (=  13.250 min)  67.8 %
Property calculations            ...        1.131 sec (=   0.019 min)   0.1 %
SCF Gradient evaluation          ...      223.831 sec (=   3.731 min)  19.1 %
Geometry relaxation              ...        0.512 sec (=   0.009 min)   0.0 %
                             ****ORCA TERMINATED NORMALLY****
TOTAL RUN TIME: 0 days 0 hours 20 minutes 50 seconds 242 msec
