
                                 *****************
                                 * O   R   C   A *
                                 *****************

                                            #,                                       
                                            ###                                      
                                            ####                                     
                                            #####                                    
                                            ######                                   
                                           ########,                                 
                                     ,,################,,,,,                         
                               ,,#################################,,                 
                          ,,##########################################,,             
                       ,#########################################, ''#####,          
                    ,#############################################,,   '####,        
                  ,##################################################,,,,####,       
                ,###########''''           ''''###############################       
              ,#####''   ,,,,##########,,,,          '''####'''          '####       
            ,##' ,,,,###########################,,,                        '##       
           ' ,,###''''                  '''############,,,                           
         ,,##''                                '''############,,,,        ,,,,,,###''
      ,#''                                            '''#######################'''  
     '                                                          ''''####''''         
             ,#######,   #######,   ,#######,      ##                                
            ,#'     '#,  ##    ##  ,#'     '#,    #''#        ,####,    ,#,          
            ##       ##  ##   ,#'  ##            #'  '#       #'       ,# #          
            ##       ##  #######   ##           ,######,      #####,      #          
            '#,     ,#'  ##    ##  '#,     ,#' ,#      #,     #,   #      #          
             '#######'   ##     ##  '#######'  #'      '#     '####' #    #          



                #########################################################
                #                        -***-                          #
                #          Department of theory and spectroscopy        #
                #                                                       #
                #                      Frank Neese                      #
                #                                                       #
                #     Directorship, Architecture, Infrastructure        #
                #                    SHARK, DRIVERS                     #
                #        Core code/Algorithms in most modules           #
                #                                                       #
                #        Max Planck Institute fuer Kohlenforschung      #
                #                Kaiser Wilhelm Platz 1                 #
                #                 D-45470 Muelheim/Ruhr                 #
                #                      Germany                          #
                #                                                       #
                #                  All rights reserved                  #
                #                        -***-                          #
                #########################################################


                         Program Version 6.1.1  -  RELEASE   -
                                (GIT: $487d211c$)
                          ($2025-11-21 10:33:24 +0100$)
                                                                         
                                  - NO-DMRG VERSION -                    
                                                                         


 With contributions from (in alphabetic order):
[Max-Planck-Institut fuer Kohlenforschung]                               
  Daniel Aravena         : Magnetic Suceptibility                        
  Michael Atanasov       : Ab Initio Ligand Field Theory (pilot matlab implementation)
  Alexander A. Auer      : GIAO ZORA, VPT2 properties, NMR spectrum      
  Ute Becker             : All parallelization in ORCA, NUMFREQ, NUMCALC 
  Giovanni Bistoni       : ED, misc. LED, open-shell LED, HFLD           
  Dmytro Bykov           : pre 5.0 version of the SCF Hessian            
  Marcos Casanova-Páez   : Triplet and SCS-CIS(D). UHF-(DLPNO)-IP/EA/STEOM-CCSD. UHF-CVS-IP/STEOM-CCSD   
  Vijay G. Chilkuri      : MRCI spin determinant printing, contributions to CSF-ICE 
  Pauline Colinet        : FMM embedding                                 
  Dipayan Datta          : RHF DLPNO-CCSD density                        
  Achintya Kumar Dutta   : EOM-CC, STEOM-CC                              
  Nicolas Foglia         : Exact transition moments, OPA infrastructure, MCD improvements    
  Dmitry Ganyushin       : Spin-Orbit,Spin-Spin,Magnetic field MRCI      
  Miquel Garcia-Rates    : C-PCM and meta-GGA Hessian, CCSD/C-PCM, Gaussian charge scheme 
  Tiago L. C. Gouveia    : GS-ROHF, GS-ROCIS                             
  Yang Guo               : DLPNO-NEVPT2, F12-NEVPT2, CIM, IAO-localization        
  Andreas Hansen         : Spin unrestricted coupled pair/coupled cluster methods 
  Ingolf Harden          : AUTO-CI MPn and infrastructure                
  Benjamin Helmich-Paris : MC-RPA, TRAH-(SCF,CASSCF), AVAS, COSX integrals, SCF dyn. polar., MC-PDFT, srDFT 
  Lee Huntington         : MR-EOM, pCC                                   
  Robert Izsak           : Overlap fitted RIJCOSX, COSX-SCS-MP3, EOM     
  Riya Kayal             : Wick's Theorem for AUTO-CI, AUTO-CI UHF-CCSDT 
  Emily Kempfer          : AUTO-CI RHF CISDT and CCSDT, approximate NEVPT4
  Christian Kollmar      : KDIIS, OOCD, Brueckner-CCSD(T), CCSD density, CASPT2, CASPT2-K, improved NEVPT2 
  Axel Koslowski         : Symmetry handling                             
  Simone Kossmann        : meta-GGA functionals, TD-DFT gradient, OOMP2, (MP2 Hessian; deprecated post 5.0) 
  Lucas Lang             : DCDCAS, Hyperfine gauge corrections, ICE-SOC+SSC
  Marvin Lechner         : AUTO-CI (C++ implementation), FIC-MRCC        
  Spencer Leger          : CASSCF response                               
  Dagmar Lenk            : GEPOL surface, SMD, ORCA-2-JSON               
  Dimitrios Liakos       : Extrapolation schemes; Compound Job, Property file
  Dimitrios Manganas     : Further ROCIS development; embedding schemes. LFT, Crystal Embedding 
  Dimitrios Pantazis     : SARC Basis sets                               
  Anastasios Papadopoulos: AUTO-CI, single reference methods and gradients 
  Taras Petrenko         : pre 6.0 DFT Hessian and TD-DFT gradient,  ECA, NRVS 
  Petra Pikulova         : Analytic Raman intensities                    
  Peter Pinski           : DLPNO-MP2, DLPNO-MP2 Gradient                 
  Shashank Vittal Rao    : ES-AILFT, MagRelax                            
  Christoph Reimann      : Effective Core Potentials                     
  Marius Retegan         : Local ZFS, SOC                                
  Christoph Riplinger    : Optimizer, TS searches, QM/MM, DLPNO-CCSD(T), (RO)-DLPNO pert. Triples 
  Michael Roemelt        : Original ROCIS implementation, recursive CI coupling coefficients
  Masaaki Saitow         : Open-shell DLPNO-CCSD energy and density      
  Barbara Sandhoefer     : DKH picture change effects                    
  Yorick L. A. Schmerwitz: GMF and freeze-and-release deltaSCF, NEB S-IDPP initial path                    
  Kantharuban Sivalingam : CASSCF convergence/infrastructure, NEVPT2, NEVPT3, NEVPT4(SD), FIC-MRCI and CEPA variants
  Bernardo de Souza      : ESD, SOC TD-DFT                               
  Georgi L. Stoychev     : AutoAux, RI-MP2 NMR, DLPNO-MP2 response, X2C  
  Van Anh Tran           : RI-MP2 g-tensors                              
  Willem Van den Heuvel  : Paramagnetic NMR                              
  Zikuan Wang            : NOTCH, Electric field optimization            
  Frank Wennmohs         : Technical directorship and infrastructure     
  Hang Xu                : AUTO-CI-Response properties                   
                                                                         
[FACCTs GmbH]                                                            
  Markus Bursch, Nicolas Foglia, Miquel Garcia-Rates, Ingolf Harden, Hagen Neugebauer, Anastasios Papadopoulos, 
  Christoph Riplinger, Bernardo de Souza, Georgi L. Stoychev                                                    
                                                                 
  APM, various basis sets, CI-OPT, improved COSX, DLPNO-Multilevel,           
  DOCKER, DRACO, updates on ESD, Fragmentator, GOAT, IRC, LR-CPCM, L-BFGS, MBIS, meta-GGA TD-DFT gradient, ML-optimized integration grids, 
  MM, NACMEs, nearIR, NEB, NEB-TS, NL-DFT gradient (VV10), 2- and 3-layer-ONIOM, interface openCOSMO-RS, QMMM,   
  Crystal-QMMM, RESP, rigid body optimization, SF, symmetry and pop. for TD-DFT, various functionals, SOLVATOR                                   
                                                                         
[Other institutions]                                                     
  V. Asgeirsson          : NEB                                           
  Christoph Bannwarth    : sTDA-DFT, sTD-DFT, PBEh-3c, B97-3c, D3        
  Giovanni Bistoni       : ETS/NOCV, ADLD/ADEX, COVALED                  
  Martin Brehm           : Molecular dynamics                            
  Ronald Cardenas        : ETS/NOCV                                      
  Martina Colucci        : COVALED                                       
  Sebastian Ehlert       : rSCAN, r2SCAN, r2SCAN-3c, D4, dhf basis sets  
  Marvin Friede          : D4 for Fr, Ra, Ac-Lr                          
  Lars Goerigk           : TD-DFT with DH, B97 family of functionals     
  Stefan Grimme          : VdW corrections, initial TS optimization, DFT functionals, gCP, sTDA/sTD-DF 
  Waldemar Hujo          : DFT-NL                                        
  H. Jonsson             : NEB                                           
  Holger Kruse           : gCP                                           
  Marcel Mueller         : wB97X-3c, vDZP basis set                      
  Hagen Neugebauer       : wr2SCAN, Native XTB                           
  Gianluca Regni         : ADLD/ADEX                                     
  Tobias Risthaus        : pre 6.0 range-separated hybrid DFT and stability analysis
  Lukas Wittmann         : regularized MP2, r2SCAN double-hybrids, wr2SCAN        
                                                                         
We gratefully acknowledge several colleagues who have allowed us to      
interface, adapt or use parts of their codes:                            
  Ed Valeev, F. Pavosevic, A. Kumar             : LibInt (2-el integral package), F12 methods 
  Garnet Chan, S. Sharma, J. Yang, R. Olivares  : DMRG                   
  Ulf Ekstrom                                   : XCFun DFT Library      
  Mihaly Kallay                                 : mrcc  (arbitrary order and MRCC methods)
  Frank Weinhold                                : gennbo (NPA and NBO analysis)           
  Simon Mueller                                 : openCOSMO-RS                            
  Christopher J. Cramer and Donald G. Truhlar   : smd solvation model                     
  S Lehtola, MJT Oliveira, MAL Marques          : LibXC Library                           
  Liviu Ungur et al                             : ANISO software                          


 Your calculation uses the libint2 library for the computation of 2-el integrals
 For citations please refer to: http://libint.valeyev.net

 Your ORCA version has been built with support for libXC version: 7.0.0
 For citations please refer to: https://libxc.gitlab.io

 This ORCA versions uses:
   CBLAS   interface :  Fast vector & matrix operations
   LAPACKE interface :  Fast linear algebra routines
   SCALAPACK package :  Parallel linear algebra routines
   Shared memory     :  Shared parallel matrices
   BLAS/LAPACK       :  OpenBLAS 0.3.29  USE64BITINT DYNAMIC_ARCH NO_AFFINITY Zen SINGLE_THREADED
        Core in use  :  Zen
   Copyright (c) 2011-2014, The OpenBLAS Project


  ***********************************
  * Starting time: Thu Apr 23 14:59:43 2026
  * Host name:     vmi3233575
  * Process ID:    1288310
  * Working dir.:  /root/b12_scan/jobs/hex_antiprism_nn2.00
  ***********************************

NOTE: MaxCore=2500 MB was set to SCF,MP2,MDCI,CIPSI,MRCI,RASCI and CIS
      => If you want to overwrite this, your respective input block should be placed after the MaxCore statement
Your calculation utilizes the atom-pairwise dispersion correction
with the Becke-Johnson damping scheme (D3BJ)


================================================================================

----- Orbital basis set information -----
Your calculation utilizes the basis: def2-SVP
   F. Weigend and R. Ahlrichs, Phys. Chem. Chem. Phys. 7, 3297 (2005).

----- AuxJ basis set information -----
Your calculation utilizes the auxiliary basis: def2/J
   H-Rn: F. Weigend, Phys. Chem. Chem. Phys. 8, 1057 (2006).
   Fr-Lr: K. Eichkorn, F. Weigend, O. Treutler, R. Ahlrichs; Theor. Chem. Acc. 97, 119 (1997).

================================================================================
                                        WARNINGS
                       Please study these warnings very carefully!
================================================================================


WARNING: Geometry Optimization
  ===> : Switching off AutoStart
         For restart on a previous wavefunction, please use MOREAD

================================================================================
                                       INPUT FILE
================================================================================
NAME = hex_antiprism_nn2.00.inp
|  1> ! BP86 def2-SVP def2/J RI Opt TightSCF D3BJ
|  2> ! SlowConv
|  3> 
|  4> %pal nprocs 8 end
|  5> %maxcore 2500
|  6> 
|  7> %geom
|  8>   MaxIter 300
|  9> end
| 10> 
| 11> * xyz 0 1
| 12> B      2.09893613     -0.00000000      0.83957445
| 13> B      1.04946806      1.81773201      0.83957445
| 14> B     -1.04946806      1.81773201      0.83957445
| 15> B     -2.09893613      0.00000000      0.83957445
| 16> B     -1.04946806     -1.81773201      0.83957445
| 17> B      1.04946806     -1.81773201      0.83957445
| 18> B      1.81773201      1.04946806     -0.83957445
| 19> B      0.00000000      2.09893613     -0.83957445
| 20> B     -1.81773201      1.04946806     -0.83957445
| 21> B     -1.81773201     -1.04946806     -0.83957445
| 22> B     -0.00000000     -2.09893613     -0.83957445
| 23> B      1.81773201     -1.04946806     -0.83957445
| 24> *
| 25> 
| 26>                          ****END OF INPUT****
================================================================================

                       *****************************
                       * Geometry Optimization Run *
                       *****************************

Geometry optimization settings:
Update method            Update   .... BFGS
Choice of coordinates    CoordSys .... (2022) Redundant Internals
Initial Hessian          InHess   .... Almloef's Model
Max. no of cycles        MaxIter  .... 300

Convergence Tolerances:
Energy Change            TolE     ....  5.0000e-06 Eh
Max. Gradient            TolMAXG  ....  3.0000e-04 Eh/bohr
RMS Gradient             TolRMSG  ....  1.0000e-04 Eh/bohr
Max. Displacement        TolMAXD  ....  4.0000e-03 bohr
RMS Displacement         TolRMSD  ....  2.0000e-03 bohr
Strict Convergence                .... False

------------------------------------------------------------------------------
                        ORCA OPTIMIZATION COORDINATE SETUP
------------------------------------------------------------------------------

The optimization will be done in redundant internal coordinates (2022)
Making redundant internal coordinates   ...  (2022 redundants) done
Evaluating the initial hessian          ...  (Almloef) done
Evaluating the coordinates              ...  done
Calculating the B-matrix                .... done
Calculating the G-matrix                .... done
The number of degrees of freedom        ....  240

    -----------------------------------------------------------------
                    Redundant Internal Coordinates


    -----------------------------------------------------------------
         Definition                    Initial Value    Approx d2E/dq
    -----------------------------------------------------------------
      1. B(B   1,B   0)                  2.0989         0.061988   
      2. B(B   2,B   1)                  2.0989         0.061988   
      3. B(B   3,B   2)                  2.0989         0.061988   
      4. B(B   4,B   3)                  2.0989         0.061988   
      5. B(B   5,B   4)                  2.0989         0.061988   
      6. B(B   5,B   0)                  2.0989         0.061988   
      7. B(B   6,B   0)                  2.0000         0.089157   
      8. B(B   6,B   1)                  2.0000         0.089157   
      9. B(B   7,B   6)                  2.0989         0.061988   
     10. B(B   7,B   2)                  2.0000         0.089157   
     11. B(B   7,B   1)                  2.0000         0.089157   
     12. B(B   8,B   7)                  2.0989         0.061988   
     13. B(B   8,B   3)                  2.0000         0.089157   
     14. B(B   8,B   2)                  2.0000         0.089157   
     15. B(B   9,B   3)                  2.0000         0.089157   
     16. B(B   9,B   8)                  2.0989         0.061988   
     17. B(B   9,B   4)                  2.0000         0.089157   
     18. B(B  10,B   9)                  2.0989         0.061988   
     19. B(B  10,B   5)                  2.0000         0.089157   
     20. B(B  10,B   4)                  2.0000         0.089157   
     21. B(B  11,B  10)                  2.0989         0.061988   
     22. B(B  11,B   6)                  2.0989         0.061988   
     23. B(B  11,B   5)                  2.0000         0.089157   
     24. B(B  11,B   0)                  2.0000         0.089157   
     25. A(B   1,B   0,B   5)          120.0000         0.215960   
     26. A(B   6,B   0,B  11)           63.3007         0.238665   
     27. A(B   5,B   0,B  11)           58.3497         0.226845   
     28. A(B   1,B   0,B   6)           58.3497         0.226845   
     29. A(B   1,B   0,B  11)          112.5899         0.226845   
     30. A(B   5,B   0,B   6)          112.5899         0.226845   
     31. A(B   0,B   1,B   6)           58.3497         0.226845   
     32. A(B   0,B   1,B   2)          120.0000         0.215960   
     33. A(B   2,B   1,B   7)           58.3497         0.226845   
     34. A(B   6,B   1,B   7)           63.3007         0.238665   
     35. A(B   2,B   1,B   6)          112.5899         0.226845   
     36. A(B   0,B   1,B   7)          112.5899         0.226845   
     37. A(B   1,B   2,B   3)          120.0000         0.215960   
     38. A(B   7,B   2,B   8)           63.3007         0.238665   
     39. A(B   1,B   2,B   7)           58.3497         0.226845   
     40. A(B   3,B   2,B   8)           58.3497         0.226845   
     41. A(B   3,B   2,B   7)          112.5899         0.226845   
     42. A(B   1,B   2,B   8)          112.5899         0.226845   
     43. A(B   2,B   3,B   8)           58.3497         0.226845   
     44. A(B   4,B   3,B   9)           58.3497         0.226845   
     45. A(B   4,B   3,B   8)          112.5899         0.226845   
     46. A(B   2,B   3,B   4)          120.0000         0.215960   
     47. A(B   8,B   3,B   9)           63.3007         0.238665   
     48. A(B   2,B   3,B   9)          112.5899         0.226845   
     49. A(B   5,B   4,B  10)           58.3497         0.226845   
     50. A(B   9,B   4,B  10)           63.3007         0.238665   
     51. A(B   3,B   4,B  10)          112.5899         0.226845   
     52. A(B   3,B   4,B   5)          120.0000         0.215960   
     53. A(B   5,B   4,B   9)          112.5899         0.226845   
     54. A(B   3,B   4,B   9)           58.3497         0.226845   
     55. A(B  10,B   5,B  11)           63.3007         0.238665   
     56. A(B   0,B   5,B  11)           58.3497         0.226845   
     57. A(B   0,B   5,B   4)          120.0000         0.215960   
     58. A(B   4,B   5,B  10)           58.3497         0.226845   
     59. A(B   0,B   5,B  10)          112.5899         0.226845   
     60. A(B   4,B   5,B  11)          112.5899         0.226845   
     61. A(B   0,B   6,B  11)           58.3497         0.226845   
     62. A(B   1,B   6,B  11)          112.5899         0.226845   
     63. A(B   0,B   6,B   1)           63.3007         0.238665   
     64. A(B   1,B   6,B   7)           58.3497         0.226845   
     65. A(B   0,B   6,B   7)          112.5899         0.226845   
     66. A(B   7,B   6,B  11)          120.0000         0.215960   
     67. A(B   6,B   7,B   8)          120.0000         0.215960   
     68. A(B   2,B   7,B   8)           58.3497         0.226845   
     69. A(B   1,B   7,B   8)          112.5899         0.226845   
     70. A(B   2,B   7,B   6)          112.5899         0.226845   
     71. A(B   1,B   7,B   6)           58.3497         0.226845   
     72. A(B   1,B   7,B   2)           63.3007         0.238665   
     73. A(B   2,B   8,B   7)           58.3497         0.226845   
     74. A(B   2,B   8,B   3)           63.3007         0.238665   
     75. A(B   7,B   8,B   9)          120.0000         0.215960   
     76. A(B   3,B   8,B   9)           58.3497         0.226845   
     77. A(B   2,B   8,B   9)          112.5899         0.226845   
     78. A(B   3,B   8,B   7)          112.5899         0.226845   
     79. A(B   8,B   9,B  10)          120.0000         0.215960   
     80. A(B   4,B   9,B  10)           58.3497         0.226845   
     81. A(B   3,B   9,B  10)          112.5899         0.226845   
     82. A(B   4,B   9,B   8)          112.5899         0.226845   
     83. A(B   3,B   9,B   8)           58.3497         0.226845   
     84. A(B   3,B   9,B   4)           63.3007         0.238665   
     85. A(B   5,B  10,B   9)          112.5899         0.226845   
     86. A(B   4,B  10,B   9)           58.3497         0.226845   
     87. A(B   4,B  10,B   5)           63.3007         0.238665   
     88. A(B   9,B  10,B  11)          120.0000         0.215960   
     89. A(B   5,B  10,B  11)           58.3497         0.226845   
     90. A(B   4,B  10,B  11)          112.5899         0.226845   
     91. A(B   0,B  11,B   5)           63.3007         0.238665   
     92. A(B   6,B  11,B  10)          120.0000         0.215960   
     93. A(B   5,B  11,B  10)           58.3497         0.226845   
     94. A(B   0,B  11,B  10)          112.5899         0.226845   
     95. A(B   5,B  11,B   6)          112.5899         0.226845   
     96. A(B   0,B  11,B   6)           58.3497         0.226845   
     97. D(B   2,B   1,B   0,B  11)     65.4144         0.010000   
     98. D(B   2,B   1,B   0,B   5)      0.0000         0.010000   
     99. D(B   6,B   1,B   0,B  11)    -34.0926         0.010000   
    100. D(B   2,B   1,B   0,B   6)     99.5070         0.010000   
    101. D(B   7,B   1,B   0,B   5)    -65.4144         0.010000   
    102. D(B   6,B   1,B   0,B   5)    -99.5070         0.010000   
    103. D(B   8,B   2,B   1,B   0)    -65.4144         0.010000   
    104. D(B   3,B   2,B   1,B   6)     65.4144         0.010000   
    105. D(B   3,B   2,B   1,B   0)      0.0000         0.010000   
    106. D(B   7,B   2,B   1,B   0)    -99.5070         0.010000   
    107. D(B   7,B   2,B   1,B   6)    -34.0926         0.010000   
    108. D(B   3,B   2,B   1,B   7)     99.5070         0.010000   
    109. D(B   4,B   3,B   2,B   8)     99.5070         0.010000   
    110. D(B   8,B   3,B   2,B   1)    -99.5070         0.010000   
    111. D(B   4,B   3,B   2,B   7)     65.4144         0.010000   
    112. D(B   4,B   3,B   2,B   1)      0.0000         0.010000   
    113. D(B   9,B   3,B   2,B   1)    -65.4144         0.010000   
    114. D(B   8,B   3,B   2,B   7)    -34.0926         0.010000   
    115. D(B   5,B   4,B   3,B   9)     99.5070         0.010000   
    116. D(B   9,B   4,B   3,B   2)    -99.5070         0.010000   
    117. D(B   5,B   4,B   3,B   2)      0.0000         0.010000   
    118. D(B   5,B   4,B   3,B   8)     65.4144         0.010000   
    119. D(B   9,B   4,B   3,B   8)    -34.0926         0.010000   
    120. D(B  10,B   4,B   3,B   2)    -65.4144         0.010000   
    121. D(B   4,B   5,B   0,B  11)    -99.5070         0.010000   
    122. D(B  10,B   5,B   0,B   6)      0.0000         0.010000   
    123. D(B  10,B   5,B   0,B  11)    -34.0926         0.010000   
    124. D(B   4,B   5,B   0,B   6)    -65.4144         0.010000   
    125. D(B   4,B   5,B   0,B   1)      0.0000         0.010000   
    126. D(B   0,B   5,B   4,B   3)      0.0000         0.010000   
    127. D(B  10,B   5,B   0,B   1)     65.4144         0.010000   
    128. D(B  10,B   5,B   4,B   9)    -34.0926         0.010000   
    129. D(B   0,B   5,B   4,B  10)     99.5070         0.010000   
    130. D(B  10,B   5,B   4,B   3)    -99.5070         0.010000   
    131. D(B  11,B   5,B   4,B   3)    -65.4144         0.010000   
    132. D(B   0,B   5,B   4,B   9)     65.4144         0.010000   
    133. D(B  11,B   6,B   1,B   2)    -80.0319         0.010000   
    134. D(B   7,B   6,B   1,B   2)     32.2836         0.010000   
    135. D(B   7,B   6,B   1,B   0)    144.5992         0.010000   
    136. D(B   0,B   6,B   1,B   7)   -144.5992         0.010000   
    137. D(B   0,B   6,B   1,B   2)   -112.3155         0.010000   
    138. D(B  11,B   6,B   0,B   1)   -144.5992         0.010000   
    139. D(B   7,B   6,B   0,B   1)    -32.2836         0.010000   
    140. D(B   1,B   6,B   0,B  11)    144.5992         0.010000   
    141. D(B   1,B   6,B   0,B   5)    112.3155         0.010000   
    142. D(B  11,B   6,B   1,B   0)     32.2836         0.010000   
    143. D(B   7,B   6,B   0,B   5)     80.0319         0.010000   
    144. D(B   7,B   6,B   0,B  11)    112.3155         0.010000   
    145. D(B   1,B   7,B   6,B  11)     99.5070         0.010000   
    146. D(B   1,B   7,B   6,B   0)     34.0926         0.010000   
    147. D(B   8,B   7,B   2,B   1)    144.5992         0.010000   
    148. D(B   1,B   7,B   2,B   3)   -112.3155         0.010000   
    149. D(B   1,B   7,B   2,B   8)   -144.5992         0.010000   
    150. D(B   6,B   7,B   2,B   3)    -80.0319         0.010000   
    151. D(B   8,B   7,B   1,B   2)    -32.2836         0.010000   
    152. D(B   6,B   7,B   2,B   8)   -112.3155         0.010000   
    153. D(B   8,B   7,B   1,B   0)     80.0319         0.010000   
    154. D(B   6,B   7,B   1,B   2)   -144.5992         0.010000   
    155. D(B   6,B   7,B   2,B   1)     32.2836         0.010000   
    156. D(B   2,B   7,B   1,B   0)    112.3155         0.010000   
    157. D(B   2,B   7,B   1,B   6)    144.5992         0.010000   
    158. D(B   2,B   7,B   6,B   0)     -0.0000         0.010000   
    159. D(B   6,B   7,B   1,B   0)    -32.2836         0.010000   
    160. D(B   8,B   7,B   6,B   0)    -65.4144         0.010000   
    161. D(B   2,B   7,B   6,B  11)     65.4144         0.010000   
    162. D(B   2,B   7,B   6,B   1)    -34.0926         0.010000   
    163. D(B   9,B   8,B   7,B   1)    -65.4144         0.010000   
    164. D(B   3,B   8,B   7,B   6)     65.4144         0.010000   
    165. D(B   3,B   8,B   7,B   2)    -34.0926         0.010000   
    166. D(B   3,B   8,B   7,B   1)      0.0000         0.010000   
    167. D(B   2,B   8,B   7,B   6)     99.5070         0.010000   
    168. D(B   9,B   8,B   3,B   2)    144.5992         0.010000   
    169. D(B   7,B   8,B   3,B   9)   -112.3155         0.010000   
    170. D(B   7,B   8,B   3,B   4)    -80.0319         0.010000   
    171. D(B   7,B   8,B   3,B   2)     32.2836         0.010000   
    172. D(B   2,B   8,B   3,B   9)   -144.5992         0.010000   
    173. D(B   2,B   8,B   3,B   4)   -112.3155         0.010000   
    174. D(B   2,B   8,B   7,B   1)     34.0926         0.010000   
    175. D(B   9,B   8,B   2,B   3)    -32.2836         0.010000   
    176. D(B   7,B   8,B   2,B   1)    -32.2836         0.010000   
    177. D(B   3,B   8,B   2,B   7)    144.5992         0.010000   
    178. D(B   3,B   8,B   2,B   1)    112.3155         0.010000   
    179. D(B   9,B   8,B   2,B   1)     80.0319         0.010000   
    180. D(B   7,B   8,B   2,B   3)   -144.5992         0.010000   
    181. D(B  10,B   9,B   8,B   2)    -65.4144         0.010000   
    182. D(B   4,B   9,B   8,B   7)     65.4144         0.010000   
    183. D(B   4,B   9,B   8,B   3)    -34.0926         0.010000   
    184. D(B   4,B   9,B   8,B   2)      0.0000         0.010000   
    185. D(B   3,B   9,B   8,B   7)     99.5070         0.010000   
    186. D(B   3,B   9,B   8,B   2)     34.0926         0.010000   
    187. D(B  10,B   9,B   4,B   3)    144.5992         0.010000   
    188. D(B   8,B   9,B   4,B  10)   -112.3155         0.010000   
    189. D(B   8,B   9,B   4,B   5)    -80.0319         0.010000   
    190. D(B   8,B   9,B   4,B   3)     32.2836         0.010000   
    191. D(B   3,B   9,B   4,B  10)   -144.5992         0.010000   
    192. D(B   3,B   9,B   4,B   5)   -112.3155         0.010000   
    193. D(B  10,B   9,B   3,B   4)    -32.2836         0.010000   
    194. D(B  10,B   9,B   3,B   2)     80.0319         0.010000   
    195. D(B   8,B   9,B   3,B   4)   -144.5992         0.010000   
    196. D(B   8,B   9,B   3,B   2)    -32.2836         0.010000   
    197. D(B   4,B   9,B   3,B   8)    144.5992         0.010000   
    198. D(B   4,B   9,B   3,B   2)    112.3155         0.010000   
    199. D(B  11,B  10,B   9,B   3)    -65.4144         0.010000   
    200. D(B   5,B  10,B   9,B   4)    -34.0926         0.010000   
    201. D(B   5,B  10,B   9,B   3)     -0.0000         0.010000   
    202. D(B   4,B  10,B   9,B   8)     99.5070         0.010000   
    203. D(B   4,B  10,B   9,B   3)     34.0926         0.010000   
    204. D(B  11,B  10,B   5,B   0)     32.2836         0.010000   
    205. D(B   9,B  10,B   5,B  11)   -112.3155         0.010000   
    206. D(B   9,B  10,B   5,B   4)     32.2836         0.010000   
    207. D(B   9,B  10,B   5,B   0)    -80.0319         0.010000   
    208. D(B   4,B  10,B   5,B  11)   -144.5992         0.010000   
    209. D(B   4,B  10,B   5,B   0)   -112.3155         0.010000   
    210. D(B  11,B  10,B   4,B   5)    -32.2836         0.010000   
    211. D(B  11,B  10,B   4,B   3)     80.0319         0.010000   
    212. D(B   9,B  10,B   4,B   5)   -144.5992         0.010000   
    213. D(B   9,B  10,B   4,B   3)    -32.2836         0.010000   
    214. D(B   5,B  10,B   9,B   8)     65.4144         0.010000   
    215. D(B   5,B  10,B   4,B   9)    144.5992         0.010000   
    216. D(B   5,B  10,B   4,B   3)    112.3155         0.010000   
    217. D(B  10,B  11,B   0,B   5)     32.2836         0.010000   
    218. D(B  10,B  11,B   0,B   1)    -80.0319         0.010000   
    219. D(B   6,B  11,B   0,B   5)    144.5992         0.010000   
    220. D(B   6,B  11,B   0,B   1)     32.2836         0.010000   
    221. D(B   5,B  11,B   0,B   6)   -144.5992         0.010000   
    222. D(B   0,B  11,B   5,B   4)    112.3155         0.010000   
    223. D(B   5,B  11,B   0,B   1)   -112.3155         0.010000   
    224. D(B   6,B  11,B  10,B   4)    -65.4144         0.010000   
    225. D(B   5,B  11,B  10,B   4)     34.0926         0.010000   
    226. D(B   0,B  11,B  10,B   9)     65.4144         0.010000   
    227. D(B   0,B  11,B  10,B   5)    -34.0926         0.010000   
    228. D(B  10,B  11,B   6,B   0)     99.5070         0.010000   
    229. D(B   5,B  11,B   6,B   7)    -65.4144         0.010000   
    230. D(B   5,B  11,B   6,B   1)      0.0000         0.010000   
    231. D(B   5,B  11,B   6,B   0)     34.0926         0.010000   
    232. D(B   0,B  11,B   6,B   7)    -99.5070         0.010000   
    233. D(B   0,B  11,B   6,B   1)    -34.0926         0.010000   
    234. D(B   0,B  11,B  10,B   4)      0.0000         0.010000   
    235. D(B  10,B  11,B   5,B   0)   -144.5992         0.010000   
    236. D(B   6,B  11,B   5,B  10)    112.3155         0.010000   
    237. D(B   6,B  11,B   5,B   4)     80.0319         0.010000   
    238. D(B   5,B  11,B  10,B   9)     99.5070         0.010000   
    239. D(B   6,B  11,B   5,B   0)    -32.2836         0.010000   
    240. D(B   0,B  11,B   5,B  10)    144.5992         0.010000   
    -----------------------------------------------------------------

Number of atoms                         .... 12
Number of degrees of freedom            .... 240


         *************************************************************
         *                GEOMETRY OPTIMIZATION CYCLE   1            *
         *************************************************************
---------------------------------
CARTESIAN COORDINATES (ANGSTROEM)
---------------------------------
  B      2.098936   -0.000000    0.839574
  B      1.049468    1.817732    0.839574
  B     -1.049468    1.817732    0.839574
  B     -2.098936    0.000000    0.839574
  B     -1.049468   -1.817732    0.839574
  B      1.049468   -1.817732    0.839574
  B      1.817732    1.049468   -0.839574
  B      0.000000    2.098936   -0.839574
  B     -1.817732    1.049468   -0.839574
  B     -1.817732   -1.049468   -0.839574
  B     -0.000000   -2.098936   -0.839574
  B      1.817732   -1.049468   -0.839574

----------------------------
CARTESIAN COORDINATES (A.U.)
----------------------------
  NO LB      ZA    FRAG     MASS         X           Y           Z
   0 B     5.0000    0    10.810    3.966414   -0.000000    1.586566
   1 B     5.0000    0    10.810    1.983207    3.435016    1.586566
   2 B     5.0000    0    10.810   -1.983207    3.435016    1.586566
   3 B     5.0000    0    10.810   -3.966414    0.000000    1.586566
   4 B     5.0000    0    10.810   -1.983207   -3.435016    1.586566
   5 B     5.0000    0    10.810    1.983207   -3.435016    1.586566
   6 B     5.0000    0    10.810    3.435016    1.983207   -1.586566
   7 B     5.0000    0    10.810    0.000000    3.966414   -1.586566
   8 B     5.0000    0    10.810   -3.435016    1.983207   -1.586566
   9 B     5.0000    0    10.810   -3.435016   -1.983207   -1.586566
  10 B     5.0000    0    10.810   -0.000000   -3.966414   -1.586566
  11 B     5.0000    0    10.810    3.435016   -1.983207   -1.586566

--------------------------------
INTERNAL COORDINATES (ANGSTROEM)
--------------------------------
 B      0   0   0     0.000000000000     0.00000000     0.00000000
 B      1   0   0     2.098936132932     0.00000000     0.00000000
 B      2   1   0     2.098936120000   120.00000011     0.00000000
 B      3   2   1     2.098936132932   120.00000011     0.00000000
 B      4   3   2     2.098936132932   119.99999978     0.00000000
 B      5   4   3     2.098936120000   120.00000011     0.00000000
 B      1   2   3     1.999999998609    58.34965997    99.50700221
 B      2   1   3     1.999999998609   112.58986258   294.58559908
 B      4   3   2     1.999999998609    58.34965997   260.49299779
 B      4   3   2     1.999999998609   112.58986245   294.58559920
 B      5   4   3     1.999999998609   112.58986258   294.58559908
 B      1   2   3     1.999999998609   112.58986245    65.41440080

---------------------------
INTERNAL COORDINATES (A.U.)
---------------------------
 B      0   0   0     0.000000000000     0.00000000     0.00000000
 B      1   0   0     3.966414463833     0.00000000     0.00000000
 B      2   1   0     3.966414439395   120.00000011     0.00000000
 B      3   2   1     3.966414463833   120.00000011     0.00000000
 B      4   3   2     3.966414463833   119.99999978     0.00000000
 B      5   4   3     3.966414439395   120.00000011     0.00000000
 B      1   2   3     3.779452265214    58.34965997    99.50700221
 B      2   1   3     3.779452265214   112.58986258   294.58559908
 B      4   3   2     3.779452265214    58.34965997   260.49299779
 B      4   3   2     3.779452265214   112.58986245   294.58559920
 B      5   4   3     3.779452265214   112.58986258   294.58559908
 B      1   2   3     3.779452265214   112.58986245    65.41440080

---------------------
BASIS SET INFORMATION
---------------------
There are 1 groups of distinct atoms

 Group   1 Type B   : 7s4p1d contracted to 3s2p1d pattern {511/31/1}

Atom   0B    basis set group =>   1
Atom   1B    basis set group =>   1
Atom   2B    basis set group =>   1
Atom   3B    basis set group =>   1
Atom   4B    basis set group =>   1
Atom   5B    basis set group =>   1
Atom   6B    basis set group =>   1
Atom   7B    basis set group =>   1
Atom   8B    basis set group =>   1
Atom   9B    basis set group =>   1
Atom  10B    basis set group =>   1
Atom  11B    basis set group =>   1
---------------------------------
AUXILIARY/J BASIS SET INFORMATION
---------------------------------
There are 1 groups of distinct atoms

 Group   1 Type B   : 12s5p4d2f1g contracted to 6s4p3d1f1g pattern {711111/2111/211/2/1}

Atom   0B    basis set group =>   1
Atom   1B    basis set group =>   1
Atom   2B    basis set group =>   1
Atom   3B    basis set group =>   1
Atom   4B    basis set group =>   1
Atom   5B    basis set group =>   1
Atom   6B    basis set group =>   1
Atom   7B    basis set group =>   1
Atom   8B    basis set group =>   1
Atom   9B    basis set group =>   1
Atom  10B    basis set group =>   1
Atom  11B    basis set group =>   1


           ************************************************************
           *        Program running with 8 parallel MPI-processes     *
           *              working on a common directory               *
           ************************************************************
------------------------------------------------------------------------------
                             ORCA STARTUP CALCULATIONS
                           -- RI-GTO INTEGRALS CHOSEN --
------------------------------------------------------------------------------
------------------------------------------------------------------------------
                   ___                                                        
                  /   \      - P O W E R E D   B Y -                         
                 /     \                                                     
                 |  |  |   _    _      __       _____    __    __             
                 |  |  |  | |  | |    /  \     |  _  \  |  |  /  |          
                  \  \/   | |  | |   /    \    | | | |  |  | /  /          
                 / \  \   | |__| |  /  /\  \   | |_| |  |  |/  /          
                |  |  |   |  __  | /  /__\  \  |    /   |      \           
                |  |  |   | |  | | |   __   |  |    \   |  |\   \          
                \     /   | |  | | |  |  |  |  | |\  \  |  | \   \       
                 \___/    |_|  |_| |__|  |__|  |_| \__\ |__|  \__/        
                                                                              
                      - O R C A' S   B I G   F R I E N D -                    
                                      &                                       
                       - I N T E G R A L  F E E D E R -                       
                                                                              
 v1 FN, 2020, v2 2021, v3 2022-2024                                           
------------------------------------------------------------------------------


----------------------
SHARK INTEGRAL PACKAGE
----------------------

Number of atoms                             ...     12
Number of basis functions                   ...    168
Number of shells                            ...     72
Maximum angular momentum                    ...      2
Integral batch strategy                     ... SHARK/LIBINT Hybrid
RI-J (if used) integral strategy            ... SPLIT-RIJ (Revised 2003 algorithm where possible)
Printlevel                                  ...      1
Contraction scheme used                     ... SEGMENTED contraction
Prescreening option                         ... SCHWARTZ
   Thresh                                   ... 2.500e-11
   Tcut                                     ... 2.500e-12
   Tpresel                                  ... 2.500e-12 
Coulomb Range Separation                    ... NOT USED
Exchange Range Separation                   ... NOT USED
Multipole approximations                    ... NOT USED
Finite Nucleus Model                        ... NOT USED
CABS basis                                  ... NOT available
Auxiliary Coulomb fitting basis             ... AVAILABLE
   # of basis functions in Aux-J            ...    588
   # of shells in Aux-J                     ...    180
   Maximum angular momentum in Aux-J        ...      4
Auxiliary J/K fitting basis                 ... NOT available
Auxiliary Correlation fitting basis         ... NOT available
Auxiliary 'external' fitting basis          ... NOT available

Checking pre-screening integrals            ... done (  0.0 sec) Dimension = 72
   => SHARK Basis and OBASIS are compatible. Storing Pre-screening
Shell pair information
Shell pair cut-off parameter TPreSel        ...   2.5e-12
Total number of shell pairs                 ...      2628
Shell pairs after pre-screening             ...      2586
Total number of primitive shell pairs       ...     10596
Primitive shell pairs kept                  ...      7626
          la=0 lb=0:    624 shell pairs
          la=1 lb=0:    864 shell pairs
          la=1 lb=1:    300 shell pairs
          la=2 lb=0:    432 shell pairs
          la=2 lb=1:    288 shell pairs
          la=2 lb=2:     78 shell pairs

Checking whether 4 symmetric matrices of dimension 168 fit in memory
:Max Core in MB      =   2500.00
 MB in use           =      6.86
 MB left             =   2493.14
 MB needed           =      0.43
 Data fit in memory  = YES
Calculating RI/J V-Matrix + Cholesky decomp.... done (  0.0 sec)
Calculating Nuclear repulsion               ... done (  0.0 sec) ENN=    300.311162554437 Eh

Diagonalization of the overlap matrix:
Smallest eigenvalue                        ... 7.232e-04
Time for diagonalization                   ...    0.003 sec
Threshold for overlap eigenvalues          ... 1.000e-07
Number of eigenvalues below threshold      ... 0
Time for construction of square roots      ...    0.002 sec
Total time needed                          ...    0.007 sec

-------------------
DFT GRID GENERATION
-------------------

General Integration Accuracy     IntAcc      ... 4.388
Radial Grid Type                 RadialGrid  ... OptM3 with GC (2021)
Angular Grid (max. ang.)         AngularGrid ... 4 (Lebedev-302)
Angular grid pruning method      GridPruning ... 4 (adaptive)
Weight generation scheme         WeightScheme... mBecke (2022)
Basis function cutoff            BFCut       ... 1.0000e-11
Integration weight cutoff        WCut        ... 1.0000e-14
Partially contracted basis set               ... off
Rotationally invariant grid construction     ... off
Angular grids for H and He will be reduced by one unit

Total number of grid points                  ...    71736
Total number of batches                      ...     1125
Average number of points per batch           ...       63
Average number of grid points per atom       ...     5978
Grids setup in   0.9 sec
Initializing property integral containers    ... done (  0.0 sec)

SHARK setup successfully completed in   1.1 seconds

Maximum memory used throughout the entire STARTUP-calculation: 19.9 MB


           ************************************************************
           *        Program running with 8 parallel MPI-processes     *
           *              working on a common directory               *
           ************************************************************
-------------------------------------------------------------------------------
                                 ORCA GUESS
                   Start orbitals & Density for SCF / CASSCF
-------------------------------------------------------------------------------

------------
SCF SETTINGS
------------
Hamiltonian:
 Density Functional     Method          .... DFT(GTOs)
 Exchange Functional    Exchange        .... B88
   X-Alpha parameter    XAlpha          ....  0.666667
   Becke's b parameter  XBeta           ....  0.004200
 Correlation Functional Correlation     .... P86
 LDA part of GGA corr.  LDAOpt          .... PW91-LDA
 Gradients option       PostSCFGGA      .... off
   NL short-range parameter             ....  4.400000
 RI-approximation to the Coulomb term is turned on
   Number of AuxJ basis functions       .... 588


General Settings:
 Integral files         IntName         .... hex_antiprism_nn2.00
 Hartree-Fock type      HFTyp           .... RHF
 Total Charge           Charge          ....    0
 Multiplicity           Mult            ....    1
 Number of Electrons    NEL             ....   60
 Basis Dimension        Dim             ....  168
 Nuclear Repulsion      ENuc            ....    300.3111625544 Eh

Convergence Acceleration:
 AO-DIIS                CNVDIIS         .... on
   Start iteration      DIISMaxIt       ....     0
   Startup error        DIISStart       ....  0.200000
   # of expansion vecs  DIISMaxEq       ....     5
   Bias factor          DIISBfac        ....   1.050
   Max. coefficient     DIISMaxC        ....  10.000
 MO-DIIS                CNVKDIIS        .... off
 Trust-Rad. Augm. Hess. CNVTRAH         .... auto
   Auto Start mean grad. ratio tolernc. ....  1.125000
   Auto Start start iteration           ....    50
   Auto Start num. interpolation iter.  ....    10
   Max. Number of Micro iterations      ....    24
   Max. Number of Macro iterations      .... Maxiter - #DIIS iter
   Number of Davidson start vectors     ....     2
   Converg. threshold    (grad. norm)   ....   1.000e-05
   Grad. Scal. Fac. for Micro threshold ....   0.100
   Minimum threshold for Micro iter.    ....   1.000e-02
   NR start threshold (gradient norm)   ....   1.000e-04
   Initial trust radius                 ....   0.400
   Minimum AH scaling param. (alpha)    ....   1.000
   Maximum AH scaling param. (alpha)    .... 1000.000
   Quad. conv. algorithm                .... NR
   White noise on init. David. guess    .... on
   Maximum white noise                  ....   0.010
   Pseudo random numbers                .... off
   Inactive MOs                         .... canonical
   Orbital update algorithm             .... Taylor
   Preconditioner                       .... Diag
   Full preconditioner red. dimension   ....   250
 SOSCF                 CNVSOSCF           .... on
   Start iteration     SOSCFMaxIt         ....   150
   Startup grad/error  SOSCFStart         ....  0.001000
   Hessian update      SOSCFHessUp        .... L-BFGS
   Autom. constraints  SOSCFAutoConstrain .... off
 Level Shifting         CNVShift        .... on
   Level shift para.    LevelShift      ....    0.2500
   Turn off err/grad.   ShiftErr        ....    0.0000
 Zerner damping         CNVZerner       .... off
 Static damping         CNVDamp         .... on
   Fraction old density DampFac         ....    0.8500
   Max. Damping (<1)    DampMax         ....    0.9800
   Min. Damping (>=0)   DampMin         ....    0.0000
   Turn off err/grad.   DampErr         ....    0.0300

SCF Procedure:
 Maximum # iterations   MaxIter         ....   125
 SCF integral mode      SCFMode         .... Direct
   Integral package                     .... SHARK and LIBINT hybrid scheme
 Reset frequency        DirectResetFreq ....    20
 Integral Threshold     Thresh          ....  2.500e-11 Eh
 Primitive CutOff       TCut            ....  2.500e-12 Eh

Convergence Tolerance:
 Convergence Check Mode ConvCheckMode   .... Total+1el-Energy
 Convergence forced     ConvForced      .... 0
 Energy Change          TolE            ....  1.000e-08 Eh
 1-El. energy change                    ....  1.000e-05 Eh
 Orbital Gradient       TolG            ....  1.000e-05
 Orbital Rotation angle TolX            ....  1.000e-05
 DIIS Error             TolErr          ....  5.000e-07

------------------------------
INITIAL GUESS: MODEL POTENTIAL
------------------------------
Loading Hartree-Fock densities                     ... done
Calculating cut-offs                               ... done
Initializing the effective Hamiltonian             ... done
Setting up the integral package (SHARK)            ... done
Starting the Coulomb interaction                   ... done (   0.0 sec)
Making the grid                                    ... done (   0.2 sec)
Mapping shells                                     ... done
Starting the XC term evaluation                    ... done (   0.1 sec)
  promolecular density results
     # of electrons  =     60.001737389
     EX              =    -45.087420443
     EC              =     -1.907275551
     EX+EC           =    -46.994695993
Transforming the Hamiltonian                       ... done (   0.0 sec)
Diagonalizing the Hamiltonian                      ... done (   0.0 sec)
Back transforming the eigenvectors                 ... done (   0.0 sec)
Now organizing SCF variables                       ... done
                      ------------------
                      INITIAL GUESS DONE (   0.3 sec)
                      ------------------
             **** ENERGY FILE WAS UPDATED (hex_antiprism_nn2.00.en.tmp) ****
Finished Guess after   0.8 sec
Maximum memory used throughout the entire GUESS-calculation: 9.7 MB


           ************************************************************
           *        Program running with 8 parallel MPI-processes     *
           *              working on a common directory               *
           ************************************************************

-------------------------------------------------------------------------------------------
                                      ORCA LEAN-SCF
                              memory conserving SCF solver
-------------------------------------------------------------------------------------------

----------------------------------------D-I-I-S--------------------------------------------
Iteration    Energy (Eh)           Delta-E    RMSDP     MaxDP     DIISErr   Damp  Time(sec)
-------------------------------------------------------------------------------------------
               ***  Starting incremental Fock matrix formation  ***
    1    -296.9271942685728618     0.00e+00  3.51e-03  1.04e-02  5.52e-02  0.850   0.3
Warning: op=0 Small HOMO/LUMO gap (  -0.021) - skipping pre-diagonalization
         Will do a full diagonalization
    2    -296.9603770963872194    -3.32e-02  4.35e-03  1.19e-02  4.10e-02  0.850   0.3
                               ***Turning on AO-DIIS***
    3    -296.9834360052534521    -2.31e-02  2.39e-03  6.63e-03  2.51e-02  0.850   0.3
    4    -296.9966792362496335    -1.32e-02  9.00e-03  2.54e-02  1.73e-02  0.000   0.5
    5    -297.0348080546835945    -3.81e-02  2.76e-03  9.38e-03  1.29e-02  0.000   0.5
    6    -297.0407093750797003    -5.90e-03  1.13e-03  3.01e-03  5.47e-03  0.000   0.4
    7    -297.0417947158206289    -1.09e-03  4.23e-04  1.29e-03  2.31e-03  0.000   0.3
    8    -297.0420056515019951    -2.11e-04  1.99e-04  6.99e-04  1.00e-03  0.000   0.5
                              *** Initializing SOSCF ***
---------------------------------------S-O-S-C-F--------------------------------------
Iteration    Energy (Eh)           Delta-E    RMSDP     MaxDP     MaxGrad    Time(sec)
--------------------------------------------------------------------------------------
    9    -297.0420547553313781    -4.91e-05  1.40e-04  4.69e-04  4.66e-04     0.3
               *** Restarting incremental Fock matrix formation ***
   10    -297.0420696380253958    -1.49e-05  1.88e-04  4.94e-04  4.76e-04     0.3
   11    -297.0420765525752813    -6.91e-06  1.96e-04  7.78e-04  2.64e-04     0.3
   12    -297.0420806957812374    -4.14e-06  3.79e-05  1.19e-04  4.16e-05     0.3
   13    -297.0420808636406491    -1.68e-07  1.27e-05  3.48e-05  1.36e-05     0.4
   14    -297.0420808790945557    -1.55e-08  5.45e-06  2.25e-05  4.56e-06     0.5
   15    -297.0420808813012172    -2.21e-09  1.41e-06  6.72e-06  7.62e-07     0.3
                 **** Energy Check signals convergence ****

               *****************************************************
               *                     SUCCESS                       *
               *           SCF CONVERGED AFTER  15 CYCLES          *
               *****************************************************

             **** ENERGY FILE WAS UPDATED (hex_antiprism_nn2.00.en.tmp) ****

----------------
TOTAL SCF ENERGY
----------------

Total Energy       :       -297.04208087796019 Eh           -8082.92595 eV

Components:
Nuclear Repulsion  :        300.31116255443669 Eh            8171.88218 eV
Electronic Energy  :       -597.35324343239688 Eh          -16254.80813 eV
One Electron Energy:       -988.51640201155544 Eh          -26898.89881 eV
Two Electron Energy:        391.16315857915856 Eh           10644.09068 eV

Virial components:
Potential Energy   :       -586.09241320607748 Eh          -15948.38536 eV
Kinetic Energy     :        289.05033232811724 Eh            7865.45941 eV
Virial Ratio       :          2.02764829393371

DFT components:
N(Alpha)           :       29.999825654697 electrons
N(Beta)            :       29.999825654697 electrons
N(Total)           :       59.999651309394 electrons
E(X)               :      -45.121744088689 Eh       
E(C)               :       -1.940281339655 Eh       
E(XC)              :      -47.062025428344 Eh       

---------------
SCF CONVERGENCE
---------------

  Last Energy change         ...    2.2067e-09  Tolerance :   1.0000e-08
  Last MAX-Density change    ...    6.7180e-06  Tolerance :   1.0000e-07
  Last RMS-Density change    ...    1.4116e-06  Tolerance :   5.0000e-09
  Last DIIS Error            ...    4.6596e-04  Tolerance :   5.0000e-07
  Last Orbital Gradient      ...    7.6241e-07  Tolerance :   1.0000e-05
  Last Orbital Rotation      ...    5.6797e-06  Tolerance :   1.0000e-05


----------------
ORBITAL ENERGIES
----------------

  NO   OCC          E(Eh)            E(eV) 
   0   2.0000      -6.648758      -180.9219 
   1   2.0000      -6.648755      -180.9218 
   2   2.0000      -6.648745      -180.9216 
   3   2.0000      -6.648745      -180.9216 
   4   2.0000      -6.648690      -180.9200 
   5   2.0000      -6.648687      -180.9200 
   6   2.0000      -6.648676      -180.9197 
   7   2.0000      -6.648676      -180.9197 
   8   2.0000      -6.648571      -180.9168 
   9   2.0000      -6.648571      -180.9168 
  10   2.0000      -6.648546      -180.9161 
  11   2.0000      -6.648329      -180.9102 
  12   2.0000      -0.591330       -16.0909 
  13   2.0000      -0.549894       -14.9634 
  14   2.0000      -0.549894       -14.9634 
  15   2.0000      -0.461994       -12.5715 
  16   2.0000      -0.461994       -12.5715 
  17   2.0000      -0.383667       -10.4401 
  18   2.0000      -0.352202        -9.5839 
  19   2.0000      -0.352202        -9.5839 
  20   2.0000      -0.343630        -9.3507 
  21   2.0000      -0.343630        -9.3507 
  22   2.0000      -0.285741        -7.7754 
  23   2.0000      -0.279249        -7.5988 
  24   2.0000      -0.279248        -7.5987 
  25   2.0000      -0.243780        -6.6336 
  26   2.0000      -0.232943        -6.3387 
  27   2.0000      -0.232943        -6.3387 
  28   2.0000      -0.200869        -5.4659 
  29   2.0000      -0.200869        -5.4659 
  30   0.0000      -0.200719        -5.4619 
  31   0.0000      -0.200718        -5.4618 
  32   0.0000      -0.172287        -4.6882 
  33   0.0000      -0.172287        -4.6882 
  34   0.0000      -0.161239        -4.3875 
  35   0.0000      -0.161237        -4.3875 
  36   0.0000      -0.143298        -3.8993 
  37   0.0000      -0.119638        -3.2555 
  38   0.0000      -0.119638        -3.2555 
  39   0.0000      -0.093512        -2.5446 
  40   0.0000      -0.093512        -2.5446 
*Only the first 10 virtual orbitals were printed.

                    ********************************
                    * MULLIKEN POPULATION ANALYSIS *
                    ********************************

-----------------------
MULLIKEN ATOMIC CHARGES
-----------------------
   0 B :   -0.000077
   1 B :    0.000046
   2 B :    0.000045
   3 B :   -0.000079
   4 B :    0.000032
   5 B :    0.000034
   6 B :    0.000043
   7 B :   -0.000071
   8 B :    0.000041
   9 B :    0.000034
  10 B :   -0.000085
  11 B :    0.000036
Sum of atomic charges:   -0.0000000

--------------------------------
MULLIKEN REDUCED ORBITAL CHARGES
--------------------------------
  0 B s       :     3.193913  s :     3.193913
      pz      :     0.679918  p :     1.778034
      px      :     0.513615
      py      :     0.584501
      dz2     :     0.009030  d :     0.028130
      dxz     :     0.004413
      dyz     :     0.006419
      dx2y2   :     0.003978
      dxy     :     0.004290

  1 B s       :     3.193872  s :     3.193872
      pz      :     0.679899  p :     1.777952
      px      :     0.566759
      py      :     0.531294
      dz2     :     0.009030  d :     0.028130
      dxz     :     0.005917
      dyz     :     0.004915
      dx2y2   :     0.004212
      dxy     :     0.004056

  2 B s       :     3.193873  s :     3.193873
      pz      :     0.679899  p :     1.777953
      px      :     0.566759
      py      :     0.531295
      dz2     :     0.009030  d :     0.028130
      dxz     :     0.005917
      dyz     :     0.004915
      dx2y2   :     0.004212
      dxy     :     0.004056

  3 B s       :     3.193913  s :     3.193913
      pz      :     0.679919  p :     1.778035
      px      :     0.513615
      py      :     0.584502
      dz2     :     0.009030  d :     0.028130
      dxz     :     0.004413
      dyz     :     0.006419
      dx2y2   :     0.003978
      dxy     :     0.004290

  4 B s       :     3.193876  s :     3.193876
      pz      :     0.679902  p :     1.777962
      px      :     0.566762
      py      :     0.531298
      dz2     :     0.009030  d :     0.028130
      dxz     :     0.005917
      dyz     :     0.004915
      dx2y2   :     0.004212
      dxy     :     0.004056

  5 B s       :     3.193875  s :     3.193875
      pz      :     0.679902  p :     1.777961
      px      :     0.566762
      py      :     0.531298
      dz2     :     0.009030  d :     0.028130
      dxz     :     0.005917
      dyz     :     0.004915
      dx2y2   :     0.004212
      dxy     :     0.004056

  6 B s       :     3.193873  s :     3.193873
      pz      :     0.679900  p :     1.777954
      px      :     0.531295
      py      :     0.566759
      dz2     :     0.009030  d :     0.028130
      dxz     :     0.004915
      dyz     :     0.005917
      dx2y2   :     0.004212
      dxy     :     0.004056

  7 B s       :     3.193912  s :     3.193912
      pz      :     0.679917  p :     1.778029
      px      :     0.584500
      py      :     0.513613
      dz2     :     0.009030  d :     0.028130
      dxz     :     0.006419
      dyz     :     0.004413
      dx2y2   :     0.003978
      dxy     :     0.004290

  8 B s       :     3.193874  s :     3.193874
      pz      :     0.679900  p :     1.777955
      px      :     0.531296
      py      :     0.566760
      dz2     :     0.009030  d :     0.028130
      dxz     :     0.004915
      dyz     :     0.005917
      dx2y2   :     0.004212
      dxy     :     0.004056

  9 B s       :     3.193875  s :     3.193875
      pz      :     0.679902  p :     1.777960
      px      :     0.531297
      py      :     0.566761
      dz2     :     0.009030  d :     0.028130
      dxz     :     0.004915
      dyz     :     0.005917
      dx2y2   :     0.004212
      dxy     :     0.004056

 10 B s       :     3.193915  s :     3.193915
      pz      :     0.679920  p :     1.778040
      px      :     0.584503
      py      :     0.513617
      dz2     :     0.009030  d :     0.028130
      dxz     :     0.006419
      dyz     :     0.004413
      dx2y2   :     0.003978
      dxy     :     0.004290

 11 B s       :     3.193875  s :     3.193875
      pz      :     0.679901  p :     1.777959
      px      :     0.531297
      py      :     0.566761
      dz2     :     0.009030  d :     0.028130
      dxz     :     0.004915
      dyz     :     0.005917
      dx2y2   :     0.004212
      dxy     :     0.004056



                     *******************************
                     * LOEWDIN POPULATION ANALYSIS *
                     *******************************

----------------------
LOEWDIN ATOMIC CHARGES
----------------------
   0 B :   -0.000009
   1 B :    0.000011
   2 B :    0.000010
   3 B :   -0.000011
   4 B :   -0.000001
   5 B :   -0.000000
   6 B :    0.000009
   7 B :   -0.000004
   8 B :    0.000007
   9 B :    0.000001
  10 B :   -0.000016
  11 B :    0.000003

-------------------------------
LOEWDIN REDUCED ORBITAL CHARGES
-------------------------------
  0 B s       :     2.901708  s :     2.901708
      pz      :     0.810733  p :     2.036377
      px      :     0.531099
      py      :     0.694545
      dz2     :     0.020769  d :     0.061924
      dxz     :     0.006354
      dyz     :     0.015574
      dx2y2   :     0.006906
      dxy     :     0.012322

  1 B s       :     2.901707  s :     2.901707
      pz      :     0.810730  p :     2.036358
      px      :     0.653678
      py      :     0.571950
      dz2     :     0.020769  d :     0.061924
      dxz     :     0.013269
      dyz     :     0.008659
      dx2y2   :     0.010968
      dxy     :     0.008260

  2 B s       :     2.901707  s :     2.901707
      pz      :     0.810730  p :     2.036359
      px      :     0.653678
      py      :     0.571950
      dz2     :     0.020769  d :     0.061924
      dxz     :     0.013269
      dyz     :     0.008659
      dx2y2   :     0.010968
      dxy     :     0.008260

  3 B s       :     2.901708  s :     2.901708
      pz      :     0.810733  p :     2.036378
      px      :     0.531100
      py      :     0.694545
      dz2     :     0.020769  d :     0.061924
      dxz     :     0.006354
      dyz     :     0.015574
      dx2y2   :     0.006906
      dxy     :     0.012322

  4 B s       :     2.901709  s :     2.901709
      pz      :     0.810733  p :     2.036367
      px      :     0.653681
      py      :     0.571953
      dz2     :     0.020769  d :     0.061925
      dxz     :     0.013269
      dyz     :     0.008659
      dx2y2   :     0.010968
      dxy     :     0.008260

  5 B s       :     2.901709  s :     2.901709
      pz      :     0.810733  p :     2.036366
      px      :     0.653681
      py      :     0.571953
      dz2     :     0.020769  d :     0.061925
      dxz     :     0.013269
      dyz     :     0.008659
      dx2y2   :     0.010968
      dxy     :     0.008260

  6 B s       :     2.901707  s :     2.901707
      pz      :     0.810730  p :     2.036360
      px      :     0.571950
      py      :     0.653679
      dz2     :     0.020769  d :     0.061924
      dxz     :     0.008659
      dyz     :     0.013269
      dx2y2   :     0.010968
      dxy     :     0.008260

  7 B s       :     2.901707  s :     2.901707
      pz      :     0.810731  p :     2.036373
      px      :     0.694544
      py      :     0.531098
      dz2     :     0.020769  d :     0.061924
      dxz     :     0.015574
      dyz     :     0.006354
      dx2y2   :     0.006906
      dxy     :     0.012322

  8 B s       :     2.901708  s :     2.901708
      pz      :     0.810731  p :     2.036361
      px      :     0.571951
      py      :     0.653679
      dz2     :     0.020769  d :     0.061924
      dxz     :     0.008659
      dyz     :     0.013269
      dx2y2   :     0.010968
      dxy     :     0.008260

  9 B s       :     2.901709  s :     2.901709
      pz      :     0.810733  p :     2.036366
      px      :     0.571953
      py      :     0.653680
      dz2     :     0.020769  d :     0.061925
      dxz     :     0.008659
      dyz     :     0.013269
      dx2y2   :     0.010968
      dxy     :     0.008260

 10 B s       :     2.901710  s :     2.901710
      pz      :     0.810735  p :     2.036382
      px      :     0.694546
      py      :     0.531101
      dz2     :     0.020769  d :     0.061924
      dxz     :     0.015574
      dyz     :     0.006354
      dx2y2   :     0.006906
      dxy     :     0.012322

 11 B s       :     2.901709  s :     2.901709
      pz      :     0.810732  p :     2.036364
      px      :     0.571952
      py      :     0.653680
      dz2     :     0.020769  d :     0.061925
      dxz     :     0.008659
      dyz     :     0.013269
      dx2y2   :     0.010968
      dxy     :     0.008260



                      *****************************
                      * MAYER POPULATION ANALYSIS *
                      *****************************

  NA   - Mulliken gross atomic population
  ZA   - Total nuclear charge
  QA   - Mulliken gross atomic charge
  VA   - Mayer's total valence
  BVA  - Mayer's bonded valence
  FA   - Mayer's free valence

  ATOM       NA         ZA         QA         VA         BVA        FA
  0 B      5.0001     5.0000    -0.0001     3.4103     3.4103     0.0000
  1 B      5.0000     5.0000     0.0000     3.4103     3.4103    -0.0000
  2 B      5.0000     5.0000     0.0000     3.4103     3.4103     0.0000
  3 B      5.0001     5.0000    -0.0001     3.4103     3.4103     0.0000
  4 B      5.0000     5.0000     0.0000     3.4103     3.4103    -0.0000
  5 B      5.0000     5.0000     0.0000     3.4103     3.4103    -0.0000
  6 B      5.0000     5.0000     0.0000     3.4103     3.4103     0.0000
  7 B      5.0001     5.0000    -0.0001     3.4103     3.4103     0.0000
  8 B      5.0000     5.0000     0.0000     3.4103     3.4103    -0.0000
  9 B      5.0000     5.0000     0.0000     3.4103     3.4103    -0.0000
 10 B      5.0001     5.0000    -0.0001     3.4103     3.4103     0.0000
 11 B      5.0000     5.0000     0.0000     3.4103     3.4103    -0.0000

  Mayer bond orders larger than 0.100000
B(  0-B ,  1-B ) :   0.8626 B(  0-B ,  5-B ) :   0.8626 B(  0-B ,  6-B ) :   0.6293 
B(  0-B , 11-B ) :   0.6293 B(  1-B ,  2-B ) :   0.8626 B(  1-B ,  6-B ) :   0.6293 
B(  1-B ,  7-B ) :   0.6293 B(  2-B ,  3-B ) :   0.8626 B(  2-B ,  7-B ) :   0.6293 
B(  2-B ,  8-B ) :   0.6293 B(  3-B ,  4-B ) :   0.8626 B(  3-B ,  8-B ) :   0.6293 
B(  3-B ,  9-B ) :   0.6293 B(  4-B ,  5-B ) :   0.8626 B(  4-B ,  9-B ) :   0.6293 
B(  4-B , 10-B ) :   0.6293 B(  5-B , 10-B ) :   0.6293 B(  5-B , 11-B ) :   0.6293 
B(  6-B ,  7-B ) :   0.8626 B(  6-B , 11-B ) :   0.8626 B(  7-B ,  8-B ) :   0.8626 
B(  8-B ,  9-B ) :   0.8626 B(  9-B , 10-B ) :   0.8626 B( 10-B , 11-B ) :   0.8626 


-------
TIMINGS
-------

Total SCF time: 0 days 0 hours 0 min 6 sec 

Total time                  ....       6.861 sec
Sum of individual times     ....       6.527 sec  ( 95.1%)

SCF preparation             ....       0.888 sec  ( 12.9%)
Fock matrix formation       ....       4.778 sec  ( 69.6%)
  Startup                   ....       0.014 sec  (  0.3% of F)
  Split-RI-J                ....       1.521 sec  ( 31.8% of F)
  XC integration            ....       3.124 sec  ( 65.4% of F)
    XC Preparation          ....       0.000 sec  (  0.0% of XC)
    Basis function eval.    ....       0.693 sec  ( 22.2% of XC)
    Density eval.           ....       0.486 sec  ( 15.6% of XC)
    XC-Functional eval.     ....       0.090 sec  (  2.9% of XC)
    XC-Potential eval.      ....       0.595 sec  ( 19.1% of XC)
Diagonalization             ....       0.000 sec  (  0.0%)
Density matrix formation    ....       0.148 sec  (  2.2%)
Total Energy calculation    ....       0.050 sec  (  0.7%)
Population analysis         ....       0.063 sec  (  0.9%)
Orbital Transformation      ....       0.047 sec  (  0.7%)
Orbital Orthonormalization  ....       0.000 sec  (  0.0%)
DIIS solution               ....       0.338 sec  (  4.9%)
SOSCF solution              ....       0.214 sec  (  3.1%)
Finished LeanSCF after   6.9 sec

Maximum memory used throughout the entire LEANSCF-calculation: 10.1 MB


-------------------------------------------------------------------------------
                          DFT DISPERSION CORRECTION                            
                                                                               
                              DFTD3 V3.1  Rev 1                                
                          USING Becke-Johnson damping                          
-------------------------------------------------------------------------------
The BP86 functional is recognized
Active option DFTDOPT                   ...         4   

molecular C6(AA) [au] = 7503.543422 


            DFT-D V3
 parameters
 s6 scaling factor         :     1.0000 
 a1 scaling factor         :     0.3946 
 s8 scaling factor         :     3.2822 
 a2 scaling factor         :     4.8516 
 ad hoc parameters k1-k3   :    16.0000     1.3333    -4.0000 

 Edisp/kcal,au: -32.538475141264  -0.051853355233 
 E6   /kcal   :  -9.415934978 
 E8   /kcal   : -23.122540164 
 % E8         :  71.062150464 

-------------------------   ----------------
Dispersion correction           -0.051853355
-------------------------   ----------------


-------------------------   --------------------
FINAL SINGLE POINT ENERGY      -297.093934233193
-------------------------   --------------------



           ************************************************************
           *        Program running with 8 parallel MPI-processes     *
           *              working on a common directory               *
           ************************************************************
------------------------------------------------------------------------------
                         ORCA SCF GRADIENT CALCULATION
------------------------------------------------------------------------------

Nuc. rep. gradient        (SHARK) ... done (  0.0 sec)
HCore & Overlap gradient  (SHARK) ... done (  0.1 sec)
Split-RIJ-J gradient      (SHARK) ... done (  0.4 sec)
XC gradient                       ... done (  0.8 sec)
Dispersion correction             ... done (  0.0 sec)

-------------------
DISPERSION GRADIENT
-------------------

   1   B   :   -0.000715624    0.000000000   -0.002587565
   2   B   :   -0.000357812   -0.000619749   -0.002587565
   3   B   :    0.000357812   -0.000619749   -0.002587565
   4   B   :    0.000715624    0.000000000   -0.002587565
   5   B   :    0.000357812    0.000619749   -0.002587565
   6   B   :   -0.000357812    0.000619749   -0.002587565
   7   B   :   -0.000619749   -0.000357812    0.002587565
   8   B   :   -0.000000000   -0.000715624    0.002587565
   9   B   :    0.000619749   -0.000357812    0.002587565
  10   B   :    0.000619749    0.000357812    0.002587565
  11   B   :   -0.000000000    0.000715624    0.002587565
  12   B   :   -0.000619749    0.000357812    0.002587565

Difference to translation invariance:
           :   -0.0000000000    0.0000000000   -0.0000000000

Difference to rotation invariance:
           :   -0.0000000000    0.0000000000   -0.0000000000

Norm of the Dispersion gradient    ...    0.0093000707
RMS gradient                       ...    0.0015500118
MAX gradient                       ...    0.0025875648

------------------
CARTESIAN GRADIENT
------------------

   1   B   :    0.075601436    0.000000342    0.039673118
   2   B   :    0.037820054    0.065582418    0.039716942
   3   B   :   -0.037819997    0.065582514    0.039717020
   4   B   :   -0.075601548    0.000000340    0.039673271
   5   B   :   -0.037820594   -0.065582861    0.039717839
   6   B   :    0.037820646   -0.065582762    0.039717760
   7   B   :    0.065582317    0.037820448   -0.039717091
   8   B   :    0.000000057    0.075601154   -0.039672722
   9   B   :   -0.065582369    0.037820538   -0.039717223
  10   B   :   -0.065582956   -0.037820196   -0.039717691
  11   B   :    0.000000057   -0.075601836   -0.039673666
  12   B   :    0.065582899   -0.037820100   -0.039717557

Difference to translation invariance:
           :   -0.0000000000   -0.0000000000    0.0000000000

Difference to rotation invariance:
           :    0.0000000012   -0.0000000030    0.0000000017

Norm of the Cartesian gradient     ...    0.2960230288
RMS gradient                       ...    0.0493371715
MAX gradient                       ...    0.0756018356

-------
TIMINGS
-------

Total SCF gradient time     ....        1.232 sec

Densities                   ....       0.001 sec  (  0.1%)
One electron gradient       ....       0.053 sec  (  4.3%)
RI-J Coulomb gradient       ....       0.365 sec  ( 29.6%)
XC gradient                 ....       0.763 sec  ( 61.9%)

Maximum memory used throughout the entire SCFGRAD-calculation: 29.7 MB
------------------------------------------------------------------------------
                         ORCA GEOMETRY RELAXATION STEP
------------------------------------------------------------------------------

Reading the OPT-File                    .... done
Getting information on internals        .... done
Copying old internal coords+grads       .... done
Making the new internal coordinates     .... (2022 redundants) done
Validating the new internal coordinates .... (2022 redundants) done
Calculating the B-matrix                .... done
Calculating the G,G- and P matrices     .... done
Transforming gradient to internals      .... done
Projecting the internal gradient        .... done
Number of atoms                         ....  12
Number of internal coordinates          .... 240
Current Energy                          ....  -297.093934233 Eh
Current gradient norm                   ....     0.296023029 Eh/bohr
Maximum allowed component of the step   ....  0.300
Current trust radius                    ....  0.300
Evaluating the initial hessian          ....  (Almloef) done
Projecting the Hessian                  .... done
Forming the augmented Hessian           .... done
Diagonalizing the augmented Hessian     .... done
Last element of RFO vector              ....  0.756229493
Lowest eigenvalues of augmented Hessian:
 -0.211295365  0.025718994  0.026402792  0.030151030  0.033606196
Length of the computed step             ....  0.865222096
Warning: the length of the step is outside the trust region - taking restricted step instead
The input lambda is                     ....     0.024719
   iter:   5  x=   -0.259925  g=   10.274859 f(x)=     1.073240
   iter:  10  x=   -0.742997  g=    0.226542 f(x)=     0.001465
The output lambda is                    ....    -0.743076 (13 iterations)
The final length of the internal step   ....  0.300000000
Converting the step to Cartesian space:
 Initial RMS(Int)=    0.0193649167
Transforming coordinates:
 Iter   0:  RMS(Cart)=    0.0437427400 RMS(Int)=    0.0193671250
done
Storing new coordinates                 .... done

                                .--------------------.
          ----------------------|Geometry convergence|-------------------------
          Item                value                   Tolerance       Converged
          ---------------------------------------------------------------------
          RMS gradient        0.0157636910            0.0001000000      NO
          MAX gradient        0.0613325817            0.0003000000      NO
          RMS step            0.0193649167            0.0020000000      NO
          MAX step            0.0753178372            0.0040000000      NO
          -------------------------------------------------------------------------
          ........................................................
          Max(Bonds)      0.0399      Max(Angles)    0.61
          Max(Dihed)        0.39      Max(Improp)    0.00
          ---------------------------------------------------------------------

The optimization has not yet converged - more geometry cycles are needed


    ---------------------------------------------------------------------------
                         Redundant Internal Coordinates
                            (Angstroem and degrees)

        Definition                    Value    dE/dq     Step     New-Value
    ----------------------------------------------------------------------------
     1. B(B   1,B   0)                2.0989  0.061050 -0.0397    2.0592   
     2. B(B   2,B   1)                2.0989  0.060832 -0.0396    2.0594   
     3. B(B   3,B   2)                2.0989  0.060886 -0.0396    2.0593   
     4. B(B   4,B   3)                2.0989  0.060927 -0.0396    2.0593   
     5. B(B   5,B   4)                2.0989  0.060883 -0.0396    2.0593   
     6. B(B   5,B   0)                2.0989  0.060950 -0.0396    2.0593   
     7. B(B   6,B   0)                2.0000  0.031896 -0.0207    1.9793   
     8. B(B   6,B   1)                2.0000  0.031991 -0.0208    1.9792   
     9. B(B   7,B   6)                2.0989  0.061333 -0.0399    2.0591   
    10. B(B   7,B   2)                2.0000  0.031597 -0.0205    1.9795   
    11. B(B   7,B   1)                2.0000  0.031936 -0.0208    1.9792   
    12. B(B   8,B   7)                2.0989  0.061018 -0.0397    2.0593   
    13. B(B   8,B   3)                2.0000  0.031685 -0.0206    1.9794   
    14. B(B   8,B   2)                2.0000  0.032336 -0.0210    1.9790   
    15. B(B   9,B   3)                2.0000  0.032402 -0.0210    1.9790   
    16. B(B   9,B   8)                2.0989  0.061058 -0.0397    2.0592   
    17. B(B   9,B   4)                2.0000  0.031657 -0.0206    1.9794   
    18. B(B  10,B   9)                2.0989  0.061162 -0.0398    2.0592   
    19. B(B  10,B   5)                2.0000  0.031557 -0.0205    1.9795   
    20. B(B  10,B   4)                2.0000  0.032463 -0.0211    1.9789   
    21. B(B  11,B  10)                2.0989  0.061206 -0.0398    2.0592   
    22. B(B  11,B   6)                2.0989  0.061068 -0.0397    2.0592   
    23. B(B  11,B   5)                2.0000  0.032845 -0.0213    1.9787   
    24. B(B  11,B   0)                2.0000  0.032012 -0.0208    1.9792   
    25. A(B   1,B   0,B   5)          120.00  0.000011   -0.00    120.00   
    26. A(B   6,B   0,B  11)           63.30  0.008558   -0.60     62.70   
    27. A(B   5,B   0,B  11)           58.35 -0.004004    0.28     58.63   
    28. A(B   1,B   0,B   6)           58.35 -0.004258    0.30     58.65   
    29. A(B   1,B   0,B  11)          112.59  0.002962   -0.21    112.38   
    30. A(B   5,B   0,B   6)          112.59  0.003093   -0.22    112.37   
    31. A(B   0,B   1,B   6)           58.35 -0.004298    0.30     58.65   
    32. A(B   0,B   1,B   2)          120.00  0.000018   -0.00    120.00   
[...]
      dx2y2   :     0.008382
      dxy     :     0.011105

  8 B s       :     2.726846  s :     2.726846
      pz      :     0.755839  p :     2.218674
      px      :     0.662670
      py      :     0.800165
      dz2     :     0.014557  d :     0.056176
      dxz     :     0.010539
      dyz     :     0.011610
      dx2y2   :     0.010424
      dxy     :     0.009045

  9 B s       :     2.724675  s :     2.724675
      pz      :     0.755873  p :     2.218973
      px      :     0.662903
      py      :     0.800197
      dz2     :     0.014558  d :     0.056185
      dxz     :     0.010545
      dyz     :     0.011612
      dx2y2   :     0.010424
      dxy     :     0.009046

 10 B s       :     2.725076  s :     2.725076
      pz      :     0.755535  p :     2.218222
      px      :     0.868974
      py      :     0.593713
      dz2     :     0.014550  d :     0.056161
      dxz     :     0.012135
      dyz     :     0.009986
      dx2y2   :     0.008380
      dxy     :     0.011110

 11 B s       :     2.724276  s :     2.724276
      pz      :     0.755794  p :     2.219222
      px      :     0.663070
      py      :     0.800358
      dz2     :     0.014560  d :     0.056175
      dxz     :     0.010541
      dyz     :     0.011607
      dx2y2   :     0.010421
      dxy     :     0.009046



                     *******************************
                     * LOEWDIN POPULATION ANALYSIS *
                     *******************************

----------------------
LOEWDIN ATOMIC CHARGES
----------------------
   0 B :   -0.000455
   1 B :    0.000223
   2 B :    0.000220
   3 B :   -0.000501
   4 B :    0.000199
   5 B :    0.000307
   6 B :    0.000385
   7 B :   -0.000577
   8 B :    0.000401
   9 B :    0.000115
  10 B :   -0.000334
  11 B :    0.000018

-------------------------------
LOEWDIN REDUCED ORBITAL CHARGES
-------------------------------
  0 B s       :     2.675156  s :     2.675156
      pz      :     0.791213  p :     2.182417
      px      :     0.523696
      py      :     0.867508
      dz2     :     0.040550  d :     0.142882
      dxz     :     0.016621
      dyz     :     0.034115
      dx2y2   :     0.021104
      dxy     :     0.030491

  1 B s       :     2.675289  s :     2.675289
      pz      :     0.791090  p :     2.181505
      px      :     0.781440
      py      :     0.608975
      dz2     :     0.040562  d :     0.142982
      dxz     :     0.029781
      dyz     :     0.021030
      dx2y2   :     0.028147
      dxy     :     0.023462

  2 B s       :     2.675312  s :     2.675312
      pz      :     0.791154  p :     2.181543
      px      :     0.781368
      py      :     0.609020
      dz2     :     0.040555  d :     0.142925
      dxz     :     0.029764
      dyz     :     0.021018
      dx2y2   :     0.028136
      dxy     :     0.023452

  3 B s       :     2.675098  s :     2.675098
      pz      :     0.791168  p :     2.182487
      px      :     0.523727
      py      :     0.867593
      dz2     :     0.040556  d :     0.142917
      dxz     :     0.016620
      dyz     :     0.034130
      dx2y2   :     0.021115
      dxy     :     0.030495

  4 B s       :     2.675284  s :     2.675284
      pz      :     0.791108  p :     2.181546
      px      :     0.781323
      py      :     0.609114
      dz2     :     0.040563  d :     0.142971
      dxz     :     0.029781
      dyz     :     0.021026
      dx2y2   :     0.028148
      dxy     :     0.023453

  5 B s       :     2.675345  s :     2.675345
      pz      :     0.791291  p :     2.181427
      px      :     0.781233
      py      :     0.608902
      dz2     :     0.040556  d :     0.142921
      dxz     :     0.029770
      dyz     :     0.021007
      dx2y2   :     0.028137
      dxy     :     0.023451

  6 B s       :     2.675342  s :     2.675342
      pz      :     0.791081  p :     2.181291
      px      :     0.608869
      py      :     0.781340
      dz2     :     0.040558  d :     0.142983
      dxz     :     0.021029
      dyz     :     0.029785
      dx2y2   :     0.028150
      dxy     :     0.023461

  7 B s       :     2.675107  s :     2.675107
      pz      :     0.791142  p :     2.182574
      px      :     0.867587
      py      :     0.523845
      dz2     :     0.040554  d :     0.142895
      dxz     :     0.034120
      dyz     :     0.016625
      dx2y2   :     0.021103
      dxy     :     0.030494

  8 B s       :     2.675396  s :     2.675396
      pz      :     0.791275  p :     2.181292
      px      :     0.608804
      py      :     0.781213
      dz2     :     0.040551  d :     0.142912
      dxz     :     0.021011
      dyz     :     0.029761
      dx2y2   :     0.028139
      dxy     :     0.023450

  9 B s       :     2.675251  s :     2.675251
      pz      :     0.791168  p :     2.181669
      px      :     0.609163
      py      :     0.781338
      dz2     :     0.040566  d :     0.142964
      dxz     :     0.021031
      dyz     :     0.029770
      dx2y2   :     0.028145
      dxy     :     0.023451

 10 B s       :     2.675160  s :     2.675160
      pz      :     0.791110  p :     2.182250
      px      :     0.867613
      py      :     0.523526
      dz2     :     0.040551  d :     0.142924
      dxz     :     0.034141
      dyz     :     0.016618
      dx2y2   :     0.021114
      dxy     :     0.030499

 11 B s       :     2.675232  s :     2.675232
      pz      :     0.791250  p :     2.181833
      px      :     0.609202
      py      :     0.781381
      dz2     :     0.040563  d :     0.142917
      dxz     :     0.021018
      dyz     :     0.029754
      dx2y2   :     0.028135
      dxy     :     0.023449



                      *****************************
                      * MAYER POPULATION ANALYSIS *
                      *****************************

  NA   - Mulliken gross atomic population
  ZA   - Total nuclear charge
  QA   - Mulliken gross atomic charge
  VA   - Mayer's total valence
  BVA  - Mayer's bonded valence
  FA   - Mayer's free valence

  ATOM       NA         ZA         QA         VA         BVA        FA
  0 B      4.9987     5.0000     0.0013     4.2255     4.2255    -0.0000
  1 B      5.0006     5.0000    -0.0006     4.2282     4.2282    -0.0000
  2 B      5.0005     5.0000    -0.0005     4.2278     4.2278    -0.0000
  3 B      4.9988     5.0000     0.0012     4.2262     4.2262    -0.0000
  4 B      5.0003     5.0000    -0.0003     4.2276     4.2276    -0.0000
  5 B      5.0012     5.0000    -0.0012     4.2284     4.2284    -0.0000
  6 B      5.0014     5.0000    -0.0014     4.2288     4.2288    -0.0000
  7 B      4.9980     5.0000     0.0020     4.2249     4.2249    -0.0000
  8 B      5.0017     5.0000    -0.0017     4.2287     4.2287    -0.0000
  9 B      4.9998     5.0000     0.0002     4.2272     4.2272    -0.0000
 10 B      4.9995     5.0000     0.0005     4.2266     4.2266     0.0000
 11 B      4.9997     5.0000     0.0003     4.2272     4.2272     0.0000

  Mayer bond orders larger than 0.100000
B(  0-B ,  1-B ) :   1.0031 B(  0-B ,  2-B ) :   0.1776 B(  0-B ,  4-B ) :   0.1771 
B(  0-B ,  5-B ) :   1.0030 B(  0-B ,  6-B ) :   0.7540 B(  0-B ,  7-B ) :   0.1195 
B(  0-B , 10-B ) :   0.1194 B(  0-B , 11-B ) :   0.7538 B(  1-B ,  2-B ) :   1.0027 
B(  1-B ,  3-B ) :   0.1777 B(  1-B ,  5-B ) :   0.1788 B(  1-B ,  6-B ) :   0.7544 
B(  1-B ,  7-B ) :   0.7540 B(  1-B ,  8-B ) :   0.1195 B(  1-B , 11-B ) :   0.1194 
B(  2-B ,  3-B ) :   1.0027 B(  2-B ,  4-B ) :   0.1787 B(  2-B ,  6-B ) :   0.1195 
B(  2-B ,  7-B ) :   0.7539 B(  2-B ,  8-B ) :   0.7546 B(  2-B ,  9-B ) :   0.1195 
B(  3-B ,  4-B ) :   1.0032 B(  3-B ,  5-B ) :   0.1779 B(  3-B ,  7-B ) :   0.1193 
B(  3-B ,  8-B ) :   0.7537 B(  3-B ,  9-B ) :   0.7540 B(  3-B , 10-B ) :   0.1195 
B(  4-B ,  5-B ) :   1.0026 B(  4-B ,  8-B ) :   0.1195 B(  4-B ,  9-B ) :   0.7546 
B(  4-B , 10-B ) :   0.7539 B(  4-B , 11-B ) :   0.1194 B(  5-B ,  6-B ) :   0.1195 
B(  5-B ,  9-B ) :   0.1195 B(  5-B , 10-B ) :   0.7538 B(  5-B , 11-B ) :   0.7546 
B(  6-B ,  7-B ) :   1.0032 B(  6-B ,  8-B ) :   0.1792 B(  6-B , 10-B ) :   0.1780 
B(  6-B , 11-B ) :   1.0025 B(  7-B ,  8-B ) :   1.0030 B(  7-B ,  9-B ) :   0.1769 
B(  7-B , 11-B ) :   0.1772 B(  8-B ,  9-B ) :   1.0026 B(  8-B , 10-B ) :   0.1780 
B(  9-B , 10-B ) :   1.0032 B(  9-B , 11-B ) :   0.1784 B( 10-B , 11-B ) :   1.0028 


-------
TIMINGS
-------

Total SCF time: 0 days 0 hours 0 min 3 sec 

Total time                  ....       3.242 sec
Sum of individual times     ....       2.881 sec  ( 88.9%)

SCF preparation             ....       0.674 sec  ( 20.8%)
Fock matrix formation       ....       1.921 sec  ( 59.3%)
  Startup                   ....       0.010 sec  (  0.5% of F)
  Split-RI-J                ....       0.736 sec  ( 38.3% of F)
  XC integration            ....       1.359 sec  ( 70.7% of F)
    Basis function eval.    ....       0.304 sec  ( 22.4% of XC)
    Density eval.           ....       0.243 sec  ( 17.9% of XC)
    XC-Functional eval.     ....       0.037 sec  (  2.7% of XC)
    XC-Potential eval.      ....       0.276 sec  ( 20.3% of XC)
Diagonalization             ....       0.000 sec  (  0.0%)
Density matrix formation    ....       0.024 sec  (  0.8%)
Total Energy calculation    ....       0.017 sec  (  0.5%)
Population analysis         ....       0.063 sec  (  1.9%)
Orbital Transformation      ....       0.018 sec  (  0.5%)
Orbital Orthonormalization  ....       0.000 sec  (  0.0%)
DIIS solution               ....       0.018 sec  (  0.6%)
SOSCF solution              ....       0.145 sec  (  4.5%)
Finished LeanSCF after   3.3 sec

Maximum memory used throughout the entire LEANSCF-calculation: 10.7 MB


-------------------------------------------------------------------------------
                          DFT DISPERSION CORRECTION                            
                                                                               
                              DFTD3 V3.1  Rev 1                                
                          USING Becke-Johnson damping                          
-------------------------------------------------------------------------------
The BP86 functional is recognized
Active option DFTDOPT                   ...         4   

molecular C6(AA) [au] = 4067.198282 


            DFT-D V3
 parameters
 s6 scaling factor         :     1.0000 
 a1 scaling factor         :     0.3946 
 s8 scaling factor         :     3.2822 
 a2 scaling factor         :     4.8516 
 ad hoc parameters k1-k3   :    16.0000     1.3333    -4.0000 

 Edisp/kcal,au: -22.784992532121  -0.036310192983 
 E6   /kcal   :  -6.462145344 
 E8   /kcal   : -16.322847189 
 % E8         :  71.638589153 

-------------------------   ----------------
Dispersion correction           -0.036310193
-------------------------   ----------------


-------------------------   --------------------
FINAL SINGLE POINT ENERGY      -297.694545616773
-------------------------   --------------------

                                *** OPTIMIZATION RUN DONE ***



           ************************************************************
           *        Program running with 8 parallel MPI-processes     *
           *              working on a common directory               *
           ************************************************************

------------------------------------------------------------------------------
                              ORCA PROPERTY CALCULATIONS
------------------------------------------------------------------------------

GBWName                                 ... hex_antiprism_nn2.00.gbw
Number of atoms                         ...     12
Number of basis functions               ...    168
Max core memory                         ...   2500 MB

Electric properties:
Dipole moment                           ... YES
Quadrupole moment                       ...  NO
Static polarizability (Dipole/Dipole)   ...  NO
Static polarizability (Dipole/Quad.)    ...  NO
Static polarizability (Quad./Quad.)     ...  NO
Static polarizability (Velocity)        ...  NO
Static hyperpolarizability              ...  NO

Atomic electric properties:
Dipole moment                           ...  NO
Quadrupole moment                       ...  NO
Static polarizability                   ...  NO

Choice of electric origin               ... Center of mass
Position of electric origin             ...     0.000000     0.000000     0.000000

General magnetic properties:
Magnetizability                         ...  NO

EPR properties:
g-Tensor (aka g-matrix)                 ...  NO
Zero-Field splitting spin-orbit         ...  NO
Zero-field splitting spin-spin          ...  NO
Hyperfine couplings                     ...  NO (   0 nuclei)
Quadrupole couplings                    ...  NO (   0 nuclei)
Contact density                         ...  NO (   0 nuclei)

NMR properties:
Chemical shifts                         ...  NO (   0 nuclei)
Spin-rotation constants                 ...  NO (   0 nuclei)
Spin-spin couplings                     ...  NO (   0 nuclei,    0 pairs)

Choice of magnetic origin               ... GIAO
Position of magnetic origin             ...     0.000000     0.000000     0.000000

Properties with geometric perturbations:
SCF Hessian                             ...  NO
IR spectrum                             ...  NO
VCD spectrum                            ...  NO
X-ray spectroscopy properties:
SCF XES/XAS/RIXS spectra                ...  NO

SCF SOC stabilization energy            ...  NO
Diagonal Born-Oppenheimer correction    ...  NO

-------------
DIPOLE MOMENT
-------------

Method             : SCF
Type of density    : Electron Density
Multiplicity       :   1
Irrep              :   0
Energy             :  -297.6582354237909271 Eh
Basis              : AO
                                X                 Y                 Z
Electronic contribution:     -0.000009021       0.000039981      -0.000014793
Nuclear contribution   :      0.000000000       0.000000000       0.000000000
                        -----------------------------------------
Total Dipole Moment    :     -0.000009021       0.000039981      -0.000014793
                        -----------------------------------------
Magnitude (a.u.)       :      0.000043574
Magnitude (Debye)      :      0.000110755



--------------------
Rotational spectrum 
--------------------
 
Rotational constants in cm-1:             0.068527             0.068509             0.048302 
Rotational constants in MHz :          2054.374419          2053.841506          1448.058906 

Dipole components along the rotational axes: 
x,y,z [a.u.] :     0.000026     0.000031    -0.000015 
x,y,z [Debye]:     0.000067     0.000080    -0.000038 

 

Dipole moment calculation done in   0.0 sec 

Maximum memory used throughout the entire PROP-calculation: 8.3 MB

--------------------------------
SUGGESTED CITATIONS FOR THIS RUN
--------------------------------

Below you find a list of papers that are relevant to this ORCA run
We neither can nor want to force you to cite these papers, but we appreciate if you do
You receive ORCA, which is the product of decades of hard work by many enthusiastic individuals, for free
The only thing we kindly ask in return is that you cite our papers,
We deeply appreciate it, if you show your appreciation for ORCA by not just citing the generic ORCA reference.

Please note that relegating all ORCA citations to the supporting information does *not* help us.
SI sections are not indexed - citations you put there will not count into any citation statistics
But we need these citations in order to attract the funding resources that allow us to do what we are doing

Therefore, if you are a happy ORCA user, please consider citing a few of the papers listed below in the main body of your paper

In addition to the list printed below, the program has created the file hex_antiprism_nn2.00.bibtex that contains the list in bibtex format
You can import this file easily into all common literature databanks and citation aid programs

It goes without saying that in many instances, there are alternative algorithms to achieve similar
results as the ones you have gotten from ORCA. It is, of course, also the case that in some instances
ORCA just re-implements algorithms worked out by others. We are fully aware of that and we are also
fully appreciative of our colleagues work. Hence this citation list should not be read as indicating
that the listed papers, which are focused on our own work, are the only ones worth citing. It simply
meant to make it easier for users to cite ORCA specific papers. It is not a substitute for doing your
own literature research and citing the relevant literature in a scientifically appropriate manner.

List of essential papers. We consider these as the minimum necessary citations

  1. Neese, F.
     Software update: the ORCA program system, version 6.0
     WIRES Comput. Molec. Sci. 2025 15(1), e70019
     doi.org/10.1002/wcms.70019

List of papers to cite with high priority. The work reported in these papers was absolutely
necessary for this run to complete.
Our perspective: the developers of density functionals and basis sets usually get cited in chemistry papers
Good! But without the algorithms to do something with them, the functionals or basis sets would not do anything.
Hence, in our opinion, the algorithm design and method developments papers are equally worthy of getting cited

  1. Neese, F.
     An improvement of the resolution of the identity approximation for the formation of the Coulomb matrix
     J. Comp. Chem. 2003 24(14), 1740-1747
     doi.org/10.1002/jcc.10318
  2. Grimme, S.; Antony, J.; Ehrlich, S.; Krieg, H.
     A consistent and accurate ab initio parametrization of density functional dispersion correction (DFT-D) for the 94 elements H-Pu
     J. Chem. Phys. 2010 132 , 154104
     doi.org/10.1063/1.3382344
  3. Grimme, S.; Ehrlich, S.; Goerigk, L.
     Effect of the damping function in dispersion corrected density functional theory
     J. Comput. Chem. 2011 32(7), 1456-1465
     doi.org/10.1002/jcc.21759
  4. Neese, F.
     The SHARK Integral Generation and Digestion System
     J. Comp. Chem. 2022 44(3), 381
     doi.org/10.1002/jcc.26942

List of suggested additional citations. These are papers that are important in the 'surrounding' of 
of this run, or papers that preceded the highly important papers. If you like your results we are grateful for a citation.

  1. Neese, F.
     The ORCA program system
     WIRES Comput. Molec. Sci. 2012 2(1), 73-78
     doi.org/10.1002/wcms.81
  2. Neese, F.
     Software update: the ORCA program system, version 4.0
     WIRES Comput. Molec. Sci. 2018 8(1), 1-6
     doi.org/10.1002/wcms.1327
  3. Neese, F.; Wennmohs, F.; Becker, U.; Riplinger, C.
     The ORCA quantum chemistry program package
     J. Chem. Phys. 2020 152(22), 224108
     doi.org/10.1063/5.0004608
  4. Neese, F.
     Software update: The ORCA program system—Version 5.0
     WIRES Comput. Molec. Sci. 2022 12(1), e1606
     doi.org/10.1002/wcms.1606

List of optional additional citations

  1. Neese, F.
     Approximate second-order SCF convergence for spin unrestricted wavefunctions
     Chem. Phys. Lett. 2000 325(1-3), 93-98
     doi.org/10.1016/s0009-2614(00)00662-x

Timings for individual modules:

Sum of individual times          ...      112.978 sec (=   1.883 min)
Startup calculation              ...       16.465 sec (=   0.274 min)  14.6 %
SCF iterations                   ...       73.333 sec (=   1.222 min)  64.9 %
Property calculations            ...        0.710 sec (=   0.012 min)   0.6 %
SCF Gradient evaluation          ...       22.217 sec (=   0.370 min)  19.7 %
Geometry relaxation              ...        0.253 sec (=   0.004 min)   0.2 %
                             ****ORCA TERMINATED NORMALLY****
TOTAL RUN TIME: 0 days 0 hours 2 minutes 0 seconds 601 msec
