
                                 *****************
                                 * O   R   C   A *
                                 *****************

                                            #,                                       
                                            ###                                      
                                            ####                                     
                                            #####                                    
                                            ######                                   
                                           ########,                                 
                                     ,,################,,,,,                         
                               ,,#################################,,                 
                          ,,##########################################,,             
                       ,#########################################, ''#####,          
                    ,#############################################,,   '####,        
                  ,##################################################,,,,####,       
                ,###########''''           ''''###############################       
              ,#####''   ,,,,##########,,,,          '''####'''          '####       
            ,##' ,,,,###########################,,,                        '##       
           ' ,,###''''                  '''############,,,                           
         ,,##''                                '''############,,,,        ,,,,,,###''
      ,#''                                            '''#######################'''  
     '                                                          ''''####''''         
             ,#######,   #######,   ,#######,      ##                                
            ,#'     '#,  ##    ##  ,#'     '#,    #''#        ,####,    ,#,          
            ##       ##  ##   ,#'  ##            #'  '#       #'       ,# #          
            ##       ##  #######   ##           ,######,      #####,      #          
            '#,     ,#'  ##    ##  '#,     ,#' ,#      #,     #,   #      #          
             '#######'   ##     ##  '#######'  #'      '#     '####' #    #          



                #########################################################
                #                        -***-                          #
                #          Department of theory and spectroscopy        #
                #                                                       #
                #                      Frank Neese                      #
                #                                                       #
                #     Directorship, Architecture, Infrastructure        #
                #                    SHARK, DRIVERS                     #
                #        Core code/Algorithms in most modules           #
                #                                                       #
                #        Max Planck Institute fuer Kohlenforschung      #
                #                Kaiser Wilhelm Platz 1                 #
                #                 D-45470 Muelheim/Ruhr                 #
                #                      Germany                          #
                #                                                       #
                #                  All rights reserved                  #
                #                        -***-                          #
                #########################################################


                         Program Version 6.1.1  -  RELEASE   -
                                (GIT: $487d211c$)
                          ($2025-11-21 10:33:24 +0100$)
                                                                         
                                  - NO-DMRG VERSION -                    
                                                                         


 With contributions from (in alphabetic order):
[Max-Planck-Institut fuer Kohlenforschung]                               
  Daniel Aravena         : Magnetic Suceptibility                        
  Michael Atanasov       : Ab Initio Ligand Field Theory (pilot matlab implementation)
  Alexander A. Auer      : GIAO ZORA, VPT2 properties, NMR spectrum      
  Ute Becker             : All parallelization in ORCA, NUMFREQ, NUMCALC 
  Giovanni Bistoni       : ED, misc. LED, open-shell LED, HFLD           
  Dmytro Bykov           : pre 5.0 version of the SCF Hessian            
  Marcos Casanova-Páez   : Triplet and SCS-CIS(D). UHF-(DLPNO)-IP/EA/STEOM-CCSD. UHF-CVS-IP/STEOM-CCSD   
  Vijay G. Chilkuri      : MRCI spin determinant printing, contributions to CSF-ICE 
  Pauline Colinet        : FMM embedding                                 
  Dipayan Datta          : RHF DLPNO-CCSD density                        
  Achintya Kumar Dutta   : EOM-CC, STEOM-CC                              
  Nicolas Foglia         : Exact transition moments, OPA infrastructure, MCD improvements    
  Dmitry Ganyushin       : Spin-Orbit,Spin-Spin,Magnetic field MRCI      
  Miquel Garcia-Rates    : C-PCM and meta-GGA Hessian, CCSD/C-PCM, Gaussian charge scheme 
  Tiago L. C. Gouveia    : GS-ROHF, GS-ROCIS                             
  Yang Guo               : DLPNO-NEVPT2, F12-NEVPT2, CIM, IAO-localization        
  Andreas Hansen         : Spin unrestricted coupled pair/coupled cluster methods 
  Ingolf Harden          : AUTO-CI MPn and infrastructure                
  Benjamin Helmich-Paris : MC-RPA, TRAH-(SCF,CASSCF), AVAS, COSX integrals, SCF dyn. polar., MC-PDFT, srDFT 
  Lee Huntington         : MR-EOM, pCC                                   
  Robert Izsak           : Overlap fitted RIJCOSX, COSX-SCS-MP3, EOM     
  Riya Kayal             : Wick's Theorem for AUTO-CI, AUTO-CI UHF-CCSDT 
  Emily Kempfer          : AUTO-CI RHF CISDT and CCSDT, approximate NEVPT4
  Christian Kollmar      : KDIIS, OOCD, Brueckner-CCSD(T), CCSD density, CASPT2, CASPT2-K, improved NEVPT2 
  Axel Koslowski         : Symmetry handling                             
  Simone Kossmann        : meta-GGA functionals, TD-DFT gradient, OOMP2, (MP2 Hessian; deprecated post 5.0) 
  Lucas Lang             : DCDCAS, Hyperfine gauge corrections, ICE-SOC+SSC
  Marvin Lechner         : AUTO-CI (C++ implementation), FIC-MRCC        
  Spencer Leger          : CASSCF response                               
  Dagmar Lenk            : GEPOL surface, SMD, ORCA-2-JSON               
  Dimitrios Liakos       : Extrapolation schemes; Compound Job, Property file
  Dimitrios Manganas     : Further ROCIS development; embedding schemes. LFT, Crystal Embedding 
  Dimitrios Pantazis     : SARC Basis sets                               
  Anastasios Papadopoulos: AUTO-CI, single reference methods and gradients 
  Taras Petrenko         : pre 6.0 DFT Hessian and TD-DFT gradient,  ECA, NRVS 
  Petra Pikulova         : Analytic Raman intensities                    
  Peter Pinski           : DLPNO-MP2, DLPNO-MP2 Gradient                 
  Shashank Vittal Rao    : ES-AILFT, MagRelax                            
  Christoph Reimann      : Effective Core Potentials                     
  Marius Retegan         : Local ZFS, SOC                                
  Christoph Riplinger    : Optimizer, TS searches, QM/MM, DLPNO-CCSD(T), (RO)-DLPNO pert. Triples 
  Michael Roemelt        : Original ROCIS implementation, recursive CI coupling coefficients
  Masaaki Saitow         : Open-shell DLPNO-CCSD energy and density      
  Barbara Sandhoefer     : DKH picture change effects                    
  Yorick L. A. Schmerwitz: GMF and freeze-and-release deltaSCF, NEB S-IDPP initial path                    
  Kantharuban Sivalingam : CASSCF convergence/infrastructure, NEVPT2, NEVPT3, NEVPT4(SD), FIC-MRCI and CEPA variants
  Bernardo de Souza      : ESD, SOC TD-DFT                               
  Georgi L. Stoychev     : AutoAux, RI-MP2 NMR, DLPNO-MP2 response, X2C  
  Van Anh Tran           : RI-MP2 g-tensors                              
  Willem Van den Heuvel  : Paramagnetic NMR                              
  Zikuan Wang            : NOTCH, Electric field optimization            
  Frank Wennmohs         : Technical directorship and infrastructure     
  Hang Xu                : AUTO-CI-Response properties                   
                                                                         
[FACCTs GmbH]                                                            
  Markus Bursch, Nicolas Foglia, Miquel Garcia-Rates, Ingolf Harden, Hagen Neugebauer, Anastasios Papadopoulos, 
  Christoph Riplinger, Bernardo de Souza, Georgi L. Stoychev                                                    
                                                                 
  APM, various basis sets, CI-OPT, improved COSX, DLPNO-Multilevel,           
  DOCKER, DRACO, updates on ESD, Fragmentator, GOAT, IRC, LR-CPCM, L-BFGS, MBIS, meta-GGA TD-DFT gradient, ML-optimized integration grids, 
  MM, NACMEs, nearIR, NEB, NEB-TS, NL-DFT gradient (VV10), 2- and 3-layer-ONIOM, interface openCOSMO-RS, QMMM,   
  Crystal-QMMM, RESP, rigid body optimization, SF, symmetry and pop. for TD-DFT, various functionals, SOLVATOR                                   
                                                                         
[Other institutions]                                                     
  V. Asgeirsson          : NEB                                           
  Christoph Bannwarth    : sTDA-DFT, sTD-DFT, PBEh-3c, B97-3c, D3        
  Giovanni Bistoni       : ETS/NOCV, ADLD/ADEX, COVALED                  
  Martin Brehm           : Molecular dynamics                            
  Ronald Cardenas        : ETS/NOCV                                      
  Martina Colucci        : COVALED                                       
  Sebastian Ehlert       : rSCAN, r2SCAN, r2SCAN-3c, D4, dhf basis sets  
  Marvin Friede          : D4 for Fr, Ra, Ac-Lr                          
  Lars Goerigk           : TD-DFT with DH, B97 family of functionals     
  Stefan Grimme          : VdW corrections, initial TS optimization, DFT functionals, gCP, sTDA/sTD-DF 
  Waldemar Hujo          : DFT-NL                                        
  H. Jonsson             : NEB                                           
  Holger Kruse           : gCP                                           
  Marcel Mueller         : wB97X-3c, vDZP basis set                      
  Hagen Neugebauer       : wr2SCAN, Native XTB                           
  Gianluca Regni         : ADLD/ADEX                                     
  Tobias Risthaus        : pre 6.0 range-separated hybrid DFT and stability analysis
  Lukas Wittmann         : regularized MP2, r2SCAN double-hybrids, wr2SCAN        
                                                                         
We gratefully acknowledge several colleagues who have allowed us to      
interface, adapt or use parts of their codes:                            
  Ed Valeev, F. Pavosevic, A. Kumar             : LibInt (2-el integral package), F12 methods 
  Garnet Chan, S. Sharma, J. Yang, R. Olivares  : DMRG                   
  Ulf Ekstrom                                   : XCFun DFT Library      
  Mihaly Kallay                                 : mrcc  (arbitrary order and MRCC methods)
  Frank Weinhold                                : gennbo (NPA and NBO analysis)           
  Simon Mueller                                 : openCOSMO-RS                            
  Christopher J. Cramer and Donald G. Truhlar   : smd solvation model                     
  S Lehtola, MJT Oliveira, MAL Marques          : LibXC Library                           
  Liviu Ungur et al                             : ANISO software                          


 Your calculation uses the libint2 library for the computation of 2-el integrals
 For citations please refer to: http://libint.valeyev.net

 Your ORCA version has been built with support for libXC version: 7.0.0
 For citations please refer to: https://libxc.gitlab.io

 This ORCA versions uses:
   CBLAS   interface :  Fast vector & matrix operations
   LAPACKE interface :  Fast linear algebra routines
   SCALAPACK package :  Parallel linear algebra routines
   Shared memory     :  Shared parallel matrices
   BLAS/LAPACK       :  OpenBLAS 0.3.29  USE64BITINT DYNAMIC_ARCH NO_AFFINITY Zen SINGLE_THREADED
        Core in use  :  Zen
   Copyright (c) 2011-2014, The OpenBLAS Project


  ***********************************
  * Starting time: Thu Apr 23 10:17:57 2026
  * Host name:     vmi3233575
  * Process ID:    1124230
  * Working dir.:  /root/b12_scan/jobs/cuboctahedron_nn2.00_perturb1
  ***********************************

NOTE: MaxCore=2500 MB was set to SCF,MP2,MDCI,CIPSI,MRCI,RASCI and CIS
      => If you want to overwrite this, your respective input block should be placed after the MaxCore statement
Your calculation utilizes the atom-pairwise dispersion correction
with the Becke-Johnson damping scheme (D3BJ)


================================================================================

----- Orbital basis set information -----
Your calculation utilizes the basis: def2-SVP
   F. Weigend and R. Ahlrichs, Phys. Chem. Chem. Phys. 7, 3297 (2005).

----- AuxJ basis set information -----
Your calculation utilizes the auxiliary basis: def2/J
   H-Rn: F. Weigend, Phys. Chem. Chem. Phys. 8, 1057 (2006).
   Fr-Lr: K. Eichkorn, F. Weigend, O. Treutler, R. Ahlrichs; Theor. Chem. Acc. 97, 119 (1997).

================================================================================
                                        WARNINGS
                       Please study these warnings very carefully!
================================================================================


WARNING: Geometry Optimization
  ===> : Switching off AutoStart
         For restart on a previous wavefunction, please use MOREAD

================================================================================
                                       INPUT FILE
================================================================================
NAME = cuboctahedron_nn2.00_perturb1.inp
|  1> ! BP86 def2-SVP def2/J RI Opt TightSCF D3BJ
|  2> ! SlowConv
|  3> 
|  4> %pal nprocs 8 end
|  5> %maxcore 2500
|  6> 
|  7> %geom
|  8>   MaxIter 300
|  9> end
| 10> 
| 11> * xyz 0 1
| 12> B      0.05183763     -1.29097084     -1.36464800
| 13> B     -1.60968715      0.13580338     -1.34725738
| 14> B     -1.49475655     -1.32704585      0.05468586
| 15> B      0.04411987     -1.40995023      1.49622051
| 16> B     -1.52468168     -0.02443649      1.34189567
| 17> B     -1.32438663      1.42017188     -0.04386851
| 18> B     -0.11728627      1.37563473     -1.41299224
| 19> B      1.37287313      0.19410957     -1.26320492
| 20> B      1.00753919     -1.69756555     -0.02621581
| 21> B     -0.06332856      1.44626001      1.44681185
| 22> B      1.73188938     -0.16680311      1.35757281
| 23> B      1.72062930      1.51121901      0.09945951
| 24> *
| 25> 
| 26>                          ****END OF INPUT****
================================================================================

                       *****************************
                       * Geometry Optimization Run *
                       *****************************

Geometry optimization settings:
Update method            Update   .... BFGS
Choice of coordinates    CoordSys .... (2022) Redundant Internals
Initial Hessian          InHess   .... Almloef's Model
Max. no of cycles        MaxIter  .... 300

Convergence Tolerances:
Energy Change            TolE     ....  5.0000e-06 Eh
Max. Gradient            TolMAXG  ....  3.0000e-04 Eh/bohr
RMS Gradient             TolRMSG  ....  1.0000e-04 Eh/bohr
Max. Displacement        TolMAXD  ....  4.0000e-03 bohr
RMS Displacement         TolRMSD  ....  2.0000e-03 bohr
Strict Convergence                .... False

------------------------------------------------------------------------------
                        ORCA OPTIMIZATION COORDINATE SETUP
------------------------------------------------------------------------------

The optimization will be done in redundant internal coordinates (2022)
Making redundant internal coordinates   ...  (2022 redundants) done
Evaluating the initial hessian          ...  (Almloef) done
Evaluating the coordinates              ...  done
Calculating the B-matrix                .... done
Calculating the G-matrix                .... done
The number of degrees of freedom        ....  109

    -----------------------------------------------------------------
                    Redundant Internal Coordinates


    -----------------------------------------------------------------
         Definition                    Initial Value    Approx d2E/dq
    -----------------------------------------------------------------
      1. B(B   2,B   0)                  2.0995         0.061868   
      2. B(B   2,B   1)                  2.0294         0.080021   
      3. B(B   4,B   2)                  1.8316         0.165539   
      4. B(B   4,B   3)                  2.0987         0.062039   
      5. B(B   5,B   4)                  2.0118         0.085374   
      6. B(B   5,B   1)                  1.8520         0.153574   
      7. B(B   6,B   1)                  1.9413         0.110602   
      8. B(B   6,B   5)                  1.8258         0.169071   
      9. B(B   7,B   6)                  1.9076         0.125183   
     10. B(B   7,B   0)                  1.9902         0.092426   
     11. B(B   8,B   3)                  1.8245         0.169901   
     12. B(B   8,B   0)                  1.6941         0.274252   
     13. B(B   9,B   5)                  1.9527         0.106073   
     14. B(B   9,B   4)                  2.0759         0.067454   
     15. B(B  10,B   3)                  2.1008         0.061574   
     16. B(B  11,B  10)                  2.0973         0.062359   
     17. B(B  11,B   7)                  1.9268         0.116665   
     18. A(B   2,B   0,B   8)           82.9545         0.266685   
     19. A(B   2,B   0,B   7)          117.8615         0.227912   
     20. A(B   7,B   0,B   8)           76.3712         0.283585   
     21. A(B   5,B   1,B   6)           57.4858         0.266728   
     22. A(B   2,B   1,B   5)           90.2861         0.254175   
     23. A(B   2,B   1,B   6)          116.1170         0.242348   
     24. A(B   0,B   2,B   1)           64.0438         0.223454   
     25. A(B   1,B   2,B   4)           88.3911         0.257004   
     26. A(B   0,B   2,B   4)          118.3552         0.247499   
     27. A(B   8,B   3,B  10)           67.2924         0.248263   
     28. A(B   4,B   3,B  10)          101.8316         0.215790   
     29. A(B   4,B   3,B   8)          115.9403         0.248535   
     30. A(B   3,B   4,B   5)          116.7614         0.225524   
     31. A(B   2,B   4,B   5)           91.4307         0.259484   
     32. A(B   3,B   4,B   9)           86.4326         0.218435   
     33. A(B   2,B   4,B   9)          121.8616         0.250631   
     34. A(B   2,B   4,B   3)           64.5292         0.247598   
     35. A(B   5,B   4,B   9)           57.0445         0.228135   
     36. A(B   6,B   5,B   9)           98.3844         0.268928   
     37. A(B   4,B   5,B   9)           63.1313         0.243146   
     38. A(B   1,B   5,B   9)          130.2416         0.265055   
     39. A(B   4,B   5,B   6)          124.3906         0.260301   
     40. A(B   1,B   5,B   6)           63.7163         0.284647   
     41. A(B   1,B   5,B   4)           88.3641         0.256613   
     42. A(B   1,B   6,B   7)          101.6714         0.258693   
     43. A(B   1,B   6,B   5)           58.7979         0.270638   
     44. A(B   5,B   6,B   7)          118.2083         0.275801   
     45. A(B   0,B   7,B  11)          131.7535         0.249358   
     46. A(B   0,B   7,B   6)           86.5406         0.251936   
     47. A(B   6,B   7,B  11)           76.8873         0.260755   
     48. A(B   0,B   8,B   3)          108.8764         0.312333   
     49. A(B   4,B   9,B   5)           59.8241         0.235142   
     50. A(B   3,B  10,B  11)          120.5795         0.215938   
     51. A(B   7,B  11,B  10)           83.0093         0.235693   
     52. D(B   0,B   2,B   1,B   5)   -113.0873         0.010000   
     53. D(B   4,B   2,B   1,B   5)      9.7395         0.010000   
     54. D(B   4,B   2,B   1,B   6)     63.1420         0.010000   
     55. D(B   4,B   2,B   0,B   7)     -1.7825         0.010000   
     56. D(B   1,B   2,B   0,B   7)     70.8680         0.010000   
     57. D(B   1,B   2,B   0,B   8)    141.3632         0.010000   
     58. D(B   4,B   2,B   0,B   8)     68.7127         0.010000   
     59. D(B   0,B   2,B   1,B   6)    -59.6848         0.010000   
     60. D(B   5,B   4,B   2,B   0)     50.1936         0.010000   
     61. D(B   5,B   4,B   2,B   1)     -8.9618         0.010000   
     62. D(B   2,B   4,B   3,B   8)     50.2549         0.010000   
     63. D(B   3,B   4,B   2,B   1)   -128.1062         0.010000   
     64. D(B   2,B   4,B   3,B  10)    120.5794         0.010000   
     65. D(B   9,B   4,B   3,B   8)    -77.7358         0.010000   
     66. D(B   5,B   4,B   3,B  10)     42.6576         0.010000   
     67. D(B   5,B   4,B   3,B   8)    -27.6669         0.010000   
     68. D(B   9,B   4,B   2,B   0)     -1.1117         0.010000   
     69. D(B   3,B   4,B   2,B   0)    -68.9508         0.010000   
     70. D(B   6,B   5,B   4,B   9)     81.4484         0.010000   
     71. D(B   6,B   5,B   4,B   3)     15.6523         0.010000   
     72. D(B   1,B   5,B   4,B   9)    137.6427         0.010000   
     73. D(B   1,B   5,B   4,B   3)     71.8466         0.010000   
     74. D(B   1,B   5,B   4,B   2)      9.8287         0.010000   
     75. D(B   9,B   5,B   1,B   6)    -78.1750         0.010000   
     76. D(B   6,B   5,B   1,B   2)    121.2553         0.010000   
     77. D(B   6,B   5,B   4,B   2)    -46.3655         0.010000   
     78. D(B   9,B   5,B   1,B   2)     43.0803         0.010000   
     79. D(B   4,B   5,B   1,B   6)   -130.1149         0.010000   
     80. D(B   4,B   5,B   1,B   2)     -8.8596         0.010000   
     81. D(B   7,B   6,B   1,B   2)     43.8638         0.010000   
     82. D(B   5,B   6,B   1,B   2)    -72.1872         0.010000   
     83. D(B   7,B   6,B   5,B   9)     44.1954         0.010000   
     84. D(B   7,B   6,B   5,B   4)    -18.8869         0.010000   
     85. D(B   7,B   6,B   5,B   1)    -86.7619         0.010000   
     86. D(B   1,B   6,B   5,B   9)    130.9572         0.010000   
     87. D(B   1,B   6,B   5,B   4)     67.8750         0.010000   
     88. D(B   7,B   6,B   1,B   5)    116.0510         0.010000   
     89. D(B  11,B   7,B   6,B   5)    -68.0771         0.010000   
     90. D(B  11,B   7,B   6,B   1)   -128.7701         0.010000   
     91. D(B   0,B   7,B   6,B   5)     66.2766         0.010000   
     92. D(B   0,B   7,B   6,B   1)      5.5836         0.010000   
     93. D(B  11,B   7,B   0,B   8)    -62.0715         0.010000   
     94. D(B  11,B   7,B   0,B   2)     12.2090         0.010000   
     95. D(B   6,B   7,B   0,B   8)   -131.0559         0.010000   
     96. D(B   6,B   7,B   0,B   2)    -56.7753         0.010000   
     97. D(B   0,B   8,B   3,B  10)   -116.0953         0.010000   
     98. D(B   0,B   8,B   3,B   4)    -23.5961         0.010000   
     99. D(B   3,B   8,B   0,B   7)    106.8512         0.010000   
    100. D(B   3,B   8,B   0,B   2)    -14.1129         0.010000   
    101. D(B   4,B   9,B   5,B   6)   -124.4269         0.010000   
    102. D(B   4,B   9,B   5,B   1)    -61.9201         0.010000   
    103. D(B   5,B   9,B   4,B   3)    125.3158         0.010000   
    104. D(B   5,B   9,B   4,B   2)     68.4140         0.010000   
    105. D(B  11,B  10,B   3,B   8)     77.2546         0.010000   
    106. D(B  11,B  10,B   3,B   4)    -36.1250         0.010000   
    107. D(B   7,B  11,B  10,B   3)    -58.9368         0.010000   
    108. D(B  10,B  11,B   7,B   6)    122.4882         0.010000   
    109. D(B  10,B  11,B   7,B   0)     49.4051         0.010000   
    -----------------------------------------------------------------

Number of atoms                         .... 12
Number of degrees of freedom            .... 109


         *************************************************************
         *                GEOMETRY OPTIMIZATION CYCLE   1            *
         *************************************************************
---------------------------------
CARTESIAN COORDINATES (ANGSTROEM)
---------------------------------
  B      0.051838   -1.290971   -1.364648
  B     -1.609687    0.135803   -1.347257
  B     -1.494757   -1.327046    0.054686
  B      0.044120   -1.409950    1.496221
  B     -1.524682   -0.024436    1.341896
  B     -1.324387    1.420172   -0.043869
  B     -0.117286    1.375635   -1.412992
  B      1.372873    0.194110   -1.263205
  B      1.007539   -1.697566   -0.026216
  B     -0.063329    1.446260    1.446812
  B      1.731889   -0.166803    1.357573
  B      1.720629    1.511219    0.099460

----------------------------
CARTESIAN COORDINATES (A.U.)
----------------------------
  NO LB      ZA    FRAG     MASS         X           Y           Z
   0 B     5.0000    0    10.810    0.097959   -2.439581   -2.578811
   1 B     5.0000    0    10.810   -3.041868    0.256631   -2.545947
   2 B     5.0000    0    10.810   -2.824681   -2.507753    0.103341
   3 B     5.0000    0    10.810    0.083374   -2.664420    2.827447
   4 B     5.0000    0    10.810   -2.881231   -0.046178    2.535815
   5 B     5.0000    0    10.810   -2.502728    2.683736   -0.082899
   6 B     5.0000    0    10.810   -0.221639    2.599573   -2.670168
   7 B     5.0000    0    10.810    2.594354    0.366814   -2.387111
   8 B     5.0000    0    10.810    1.903973   -3.207934   -0.049541
   9 B     5.0000    0    10.810   -0.119674    2.733035    2.734078
  10 B     5.0000    0    10.810    3.272797   -0.315212    2.565441
  11 B     5.0000    0    10.810    3.251518    2.855790    0.187951

--------------------------------
INTERNAL COORDINATES (ANGSTROEM)
--------------------------------
 B      0   0   0     0.000000000000     0.00000000     0.00000000
 B      1   0   0     2.190125955984     0.00000000     0.00000000
 B      2   1   0     2.029428924774    59.53176193     0.00000000
 B      3   2   1     2.110221770195   122.78727589    65.64419422
 B      3   2   1     1.831555555566    88.39105210   122.82673856
 B      2   1   3     1.851977693425   109.90804262    78.05972867
 B      6   2   1     1.825807937569    63.71634563    63.76803642
 B      7   6   2     1.907619716389   118.20834334   273.23813675
 B      1   2   3     1.694132656321   125.31329188   310.58940946
 B      6   2   1     1.952709907316   130.24162984   345.59302473
 B      4   3   2     2.100762686637   121.16809641   349.33490232
 B      8   7   6     1.926802008380    76.88727326   291.92286395

---------------------------
INTERNAL COORDINATES (A.U.)
---------------------------
 B      0   0   0     0.000000000000     0.00000000     0.00000000
 B      1   0   0     4.138738255602     0.00000000     0.00000000
 B      2   1   0     3.835064876081    59.53176193     0.00000000
 B      3   2   1     3.987741227507   122.78727589    65.64419422
 B      3   2   1     3.461138399082    88.39105210   122.82673856
 B      2   1   3     3.499730646705   109.90804262    78.05972867
 B      6   2   1     3.450276975146    63.71634563    63.76803642
 B      7   6   2     3.604878831643   118.20834334   273.23813675
 B      1   2   3     3.201446754980   125.31329188   310.58940946
 B      6   2   1     3.690086943821   130.24162984   345.59302473
 B      4   3   2     3.969866150104   121.16809641   349.33490232
 B      8   7   6     3.641128110128    76.88727326   291.92286395

---------------------
BASIS SET INFORMATION
---------------------
There are 1 groups of distinct atoms

 Group   1 Type B   : 7s4p1d contracted to 3s2p1d pattern {511/31/1}

Atom   0B    basis set group =>   1
Atom   1B    basis set group =>   1
Atom   2B    basis set group =>   1
Atom   3B    basis set group =>   1
Atom   4B    basis set group =>   1
Atom   5B    basis set group =>   1
Atom   6B    basis set group =>   1
Atom   7B    basis set group =>   1
Atom   8B    basis set group =>   1
Atom   9B    basis set group =>   1
Atom  10B    basis set group =>   1
Atom  11B    basis set group =>   1
---------------------------------
AUXILIARY/J BASIS SET INFORMATION
---------------------------------
There are 1 groups of distinct atoms

 Group   1 Type B   : 12s5p4d2f1g contracted to 6s4p3d1f1g pattern {711111/2111/211/2/1}

Atom   0B    basis set group =>   1
Atom   1B    basis set group =>   1
Atom   2B    basis set group =>   1
Atom   3B    basis set group =>   1
Atom   4B    basis set group =>   1
Atom   5B    basis set group =>   1
Atom   6B    basis set group =>   1
Atom   7B    basis set group =>   1
Atom   8B    basis set group =>   1
Atom   9B    basis set group =>   1
Atom  10B    basis set group =>   1
Atom  11B    basis set group =>   1


           ************************************************************
           *        Program running with 8 parallel MPI-processes     *
           *              working on a common directory               *
           ************************************************************
------------------------------------------------------------------------------
                             ORCA STARTUP CALCULATIONS
                           -- RI-GTO INTEGRALS CHOSEN --
------------------------------------------------------------------------------
------------------------------------------------------------------------------
                   ___                                                        
                  /   \      - P O W E R E D   B Y -                         
                 /     \                                                     
                 |  |  |   _    _      __       _____    __    __             
                 |  |  |  | |  | |    /  \     |  _  \  |  |  /  |          
                  \  \/   | |  | |   /    \    | | | |  |  | /  /          
                 / \  \   | |__| |  /  /\  \   | |_| |  |  |/  /          
                |  |  |   |  __  | /  /__\  \  |    /   |      \           
                |  |  |   | |  | | |   __   |  |    \   |  |\   \          
                \     /   | |  | | |  |  |  |  | |\  \  |  | \   \       
                 \___/    |_|  |_| |__|  |__|  |_| \__\ |__|  \__/        
                                                                              
                      - O R C A' S   B I G   F R I E N D -                    
                                      &                                       
                       - I N T E G R A L  F E E D E R -                       
                                                                              
 v1 FN, 2020, v2 2021, v3 2022-2024                                           
------------------------------------------------------------------------------


----------------------
SHARK INTEGRAL PACKAGE
----------------------

Number of atoms                             ...     12
Number of basis functions                   ...    168
Number of shells                            ...     72
Maximum angular momentum                    ...      2
Integral batch strategy                     ... SHARK/LIBINT Hybrid
RI-J (if used) integral strategy            ... SPLIT-RIJ (Revised 2003 algorithm where possible)
Printlevel                                  ...      1
Contraction scheme used                     ... SEGMENTED contraction
Prescreening option                         ... SCHWARTZ
   Thresh                                   ... 2.500e-11
   Tcut                                     ... 2.500e-12
   Tpresel                                  ... 2.500e-12 
Coulomb Range Separation                    ... NOT USED
Exchange Range Separation                   ... NOT USED
Multipole approximations                    ... NOT USED
Finite Nucleus Model                        ... NOT USED
CABS basis                                  ... NOT available
Auxiliary Coulomb fitting basis             ... AVAILABLE
   # of basis functions in Aux-J            ...    588
   # of shells in Aux-J                     ...    180
   Maximum angular momentum in Aux-J        ...      4
Auxiliary J/K fitting basis                 ... NOT available
Auxiliary Correlation fitting basis         ... NOT available
Auxiliary 'external' fitting basis          ... NOT available

Checking pre-screening integrals            ... done (  0.0 sec) Dimension = 72
   => SHARK Basis and OBASIS are compatible. Storing Pre-screening
Shell pair information
Shell pair cut-off parameter TPreSel        ...   2.5e-12
Total number of shell pairs                 ...      2628
Shell pairs after pre-screening             ...      2586
Total number of primitive shell pairs       ...     10596
Primitive shell pairs kept                  ...      7836
          la=0 lb=0:    624 shell pairs
          la=1 lb=0:    864 shell pairs
          la=1 lb=1:    300 shell pairs
          la=2 lb=0:    432 shell pairs
          la=2 lb=1:    288 shell pairs
          la=2 lb=2:     78 shell pairs

Checking whether 4 symmetric matrices of dimension 168 fit in memory
:Max Core in MB      =   2500.00
 MB in use           =      6.90
 MB left             =   2493.10
 MB needed           =      0.43
 Data fit in memory  = YES
Calculating RI/J V-Matrix + Cholesky decomp.... done (  0.1 sec)
Calculating Nuclear repulsion               ... done (  0.0 sec) ENN=    322.256624570789 Eh

Diagonalization of the overlap matrix:
Smallest eigenvalue                        ... 2.672e-04
Time for diagonalization                   ...    0.004 sec
Threshold for overlap eigenvalues          ... 1.000e-07
Number of eigenvalues below threshold      ... 0
Time for construction of square roots      ...    0.002 sec
Total time needed                          ...    0.010 sec

-------------------
DFT GRID GENERATION
-------------------

General Integration Accuracy     IntAcc      ... 4.388
Radial Grid Type                 RadialGrid  ... OptM3 with GC (2021)
Angular Grid (max. ang.)         AngularGrid ... 4 (Lebedev-302)
Angular grid pruning method      GridPruning ... 4 (adaptive)
Weight generation scheme         WeightScheme... mBecke (2022)
Basis function cutoff            BFCut       ... 1.0000e-11
Integration weight cutoff        WCut        ... 1.0000e-14
Partially contracted basis set               ... off
Rotationally invariant grid construction     ... off
Angular grids for H and He will be reduced by one unit

Total number of grid points                  ...    71267
Total number of batches                      ...     1120
Average number of points per batch           ...       63
Average number of grid points per atom       ...     5939
Grids setup in   0.8 sec
Initializing property integral containers    ... done (  0.0 sec)

SHARK setup successfully completed in   1.0 seconds

Maximum memory used throughout the entire STARTUP-calculation: 19.9 MB


           ************************************************************
           *        Program running with 8 parallel MPI-processes     *
           *              working on a common directory               *
           ************************************************************
-------------------------------------------------------------------------------
                                 ORCA GUESS
                   Start orbitals & Density for SCF / CASSCF
-------------------------------------------------------------------------------

------------
SCF SETTINGS
------------
Hamiltonian:
 Density Functional     Method          .... DFT(GTOs)
 Exchange Functional    Exchange        .... B88
   X-Alpha parameter    XAlpha          ....  0.666667
   Becke's b parameter  XBeta           ....  0.004200
 Correlation Functional Correlation     .... P86
 LDA part of GGA corr.  LDAOpt          .... PW91-LDA
 Gradients option       PostSCFGGA      .... off
   NL short-range parameter             ....  4.400000
 RI-approximation to the Coulomb term is turned on
   Number of AuxJ basis functions       .... 588


General Settings:
 Integral files         IntName         .... cuboctahedron_nn2.00_perturb1
 Hartree-Fock type      HFTyp           .... RHF
 Total Charge           Charge          ....    0
 Multiplicity           Mult            ....    1
 Number of Electrons    NEL             ....   60
 Basis Dimension        Dim             ....  168
 Nuclear Repulsion      ENuc            ....    322.2566245708 Eh

Convergence Acceleration:
 AO-DIIS                CNVDIIS         .... on
   Start iteration      DIISMaxIt       ....     0
   Startup error        DIISStart       ....  0.200000
   # of expansion vecs  DIISMaxEq       ....     5
   Bias factor          DIISBfac        ....   1.050
   Max. coefficient     DIISMaxC        ....  10.000
 MO-DIIS                CNVKDIIS        .... off
 Trust-Rad. Augm. Hess. CNVTRAH         .... auto
   Auto Start mean grad. ratio tolernc. ....  1.125000
   Auto Start start iteration           ....    50
   Auto Start num. interpolation iter.  ....    10
   Max. Number of Micro iterations      ....    24
   Max. Number of Macro iterations      .... Maxiter - #DIIS iter
   Number of Davidson start vectors     ....     2
   Converg. threshold    (grad. norm)   ....   1.000e-05
   Grad. Scal. Fac. for Micro threshold ....   0.100
   Minimum threshold for Micro iter.    ....   1.000e-02
   NR start threshold (gradient norm)   ....   1.000e-04
   Initial trust radius                 ....   0.400
   Minimum AH scaling param. (alpha)    ....   1.000
   Maximum AH scaling param. (alpha)    .... 1000.000
   Quad. conv. algorithm                .... NR
   White noise on init. David. guess    .... on
   Maximum white noise                  ....   0.010
   Pseudo random numbers                .... off
   Inactive MOs                         .... canonical
   Orbital update algorithm             .... Taylor
   Preconditioner                       .... Diag
   Full preconditioner red. dimension   ....   250
 SOSCF                 CNVSOSCF           .... on
   Start iteration     SOSCFMaxIt         ....   150
   Startup grad/error  SOSCFStart         ....  0.001000
   Hessian update      SOSCFHessUp        .... L-BFGS
   Autom. constraints  SOSCFAutoConstrain .... off
 Level Shifting         CNVShift        .... on
   Level shift para.    LevelShift      ....    0.2500
   Turn off err/grad.   ShiftErr        ....    0.0000
 Zerner damping         CNVZerner       .... off
 Static damping         CNVDamp         .... on
   Fraction old density DampFac         ....    0.8500
   Max. Damping (<1)    DampMax         ....    0.9800
   Min. Damping (>=0)   DampMin         ....    0.0000
   Turn off err/grad.   DampErr         ....    0.0300

SCF Procedure:
 Maximum # iterations   MaxIter         ....   125
 SCF integral mode      SCFMode         .... Direct
   Integral package                     .... SHARK and LIBINT hybrid scheme
 Reset frequency        DirectResetFreq ....    20
 Integral Threshold     Thresh          ....  2.500e-11 Eh
 Primitive CutOff       TCut            ....  2.500e-12 Eh

Convergence Tolerance:
 Convergence Check Mode ConvCheckMode   .... Total+1el-Energy
 Convergence forced     ConvForced      .... 0
 Energy Change          TolE            ....  1.000e-08 Eh
 1-El. energy change                    ....  1.000e-05 Eh
 Orbital Gradient       TolG            ....  1.000e-05
 Orbital Rotation angle TolX            ....  1.000e-05
 DIIS Error             TolErr          ....  5.000e-07

------------------------------
INITIAL GUESS: MODEL POTENTIAL
------------------------------
Loading Hartree-Fock densities                     ... done
Calculating cut-offs                               ... done
Initializing the effective Hamiltonian             ... done
Setting up the integral package (SHARK)            ... done
Starting the Coulomb interaction                   ... done (   0.0 sec)
Making the grid                                    ... done (   0.3 sec)
Mapping shells                                     ... done
Starting the XC term evaluation                    ... done (   0.1 sec)
  promolecular density results
     # of electrons  =     59.997315293
     EX              =    -45.211452963
     EC              =     -1.941207334
     EX+EC           =    -47.152660297
Transforming the Hamiltonian                       ... done (   0.0 sec)
Diagonalizing the Hamiltonian                      ... done (   0.0 sec)
Back transforming the eigenvectors                 ... done (   0.0 sec)
Now organizing SCF variables                       ... done
                      ------------------
                      INITIAL GUESS DONE (   0.5 sec)
                      ------------------
             **** ENERGY FILE WAS UPDATED (cuboctahedron_nn2.00_perturb1.en.tmp) ****
Finished Guess after   1.0 sec
Maximum memory used throughout the entire GUESS-calculation: 9.7 MB


           ************************************************************
           *        Program running with 8 parallel MPI-processes     *
           *              working on a common directory               *
           ************************************************************

-------------------------------------------------------------------------------------------
                                      ORCA LEAN-SCF
                              memory conserving SCF solver
-------------------------------------------------------------------------------------------

----------------------------------------D-I-I-S--------------------------------------------
Iteration    Energy (Eh)           Delta-E    RMSDP     MaxDP     DIISErr   Damp  Time(sec)
-------------------------------------------------------------------------------------------
               ***  Starting incremental Fock matrix formation  ***
    1    -296.8642259680553366     0.00e+00  1.05e-02  7.74e-02  8.76e-02  0.850   1.2
Warning: op=0 Small HOMO/LUMO gap (  -0.051) - skipping pre-diagonalization
         Will do a full diagonalization
    2    -296.9490029981989778    -8.48e-02  1.28e-02  1.06e-01  6.16e-02  0.850   2.1
                               ***Turning on AO-DIIS***
    3    -296.9876065715955633    -3.86e-02  8.81e-03  9.35e-02  3.13e-02  0.850   0.5
    4    -297.0041987219080397    -1.66e-02  5.65e-03  6.44e-02  1.92e-02  0.850   0.5
    5    -297.0178717154199717    -1.37e-02  2.44e-02  2.73e-01  1.67e-02  0.000   0.5
    6    -297.0672429164447408    -4.94e-02  6.61e-03  7.18e-02  2.72e-02  0.000   1.1
    7    -297.0809544878234760    -1.37e-02  3.72e-03  5.01e-02  1.23e-02  0.000   0.8
    8    -297.0848250747687302    -3.87e-03  2.01e-03  1.67e-02  7.29e-03  0.000   1.5
    9    -297.0857583188888498    -9.33e-04  1.47e-03  1.74e-02  7.10e-03  0.000   0.5
   10    -297.0865638116699188    -8.05e-04  1.05e-03  8.54e-03  2.11e-03  0.000   0.3
   11    -297.0867270337629975    -1.63e-04  5.57e-04  2.77e-03  2.91e-03  0.000   0.8
                              *** Initializing SOSCF ***
---------------------------------------S-O-S-C-F--------------------------------------
Iteration    Energy (Eh)           Delta-E    RMSDP     MaxDP     MaxGrad    Time(sec)
--------------------------------------------------------------------------------------
   12    -297.0868828914497612    -1.56e-04  3.80e-04  1.29e-03  7.72e-04     0.4
               *** Restarting incremental Fock matrix formation ***
   13    -297.0869611214464499    -7.82e-05  6.81e-04  2.99e-03  9.69e-04     0.5
   14    -297.0870567550772989    -9.56e-05  3.83e-03  1.37e-02  9.76e-04     0.4
   15    -297.0871408075681188    -8.41e-05  1.25e-03  6.95e-03  1.58e-03     0.3
   16    -297.0872108459024616    -7.00e-05  1.70e-03  6.34e-03  2.26e-03     0.3
   17    -297.0872530137334593    -4.22e-05  1.23e-03  8.93e-03  1.59e-03     0.3
   18    -297.0873807033107710    -1.28e-04  1.40e-03  4.49e-03  1.04e-03     0.3
   19    -297.0874543221078170    -7.36e-05  1.02e-03  6.01e-03  8.07e-04     0.3
   20    -297.0874667171232772    -1.24e-05  1.22e-03  5.83e-03  1.49e-03     0.3
   21    -297.0875476740312138    -8.10e-05  1.11e-03  5.33e-03  7.09e-04     0.3
   22    -297.0875939547876783    -4.63e-05  1.08e-03  4.06e-03  6.16e-04     0.3
   23    -297.0876458644827949    -5.19e-05  1.06e-03  5.10e-03  3.91e-04     0.3
   24    -297.0876709336523049    -2.51e-05  1.35e-03  6.80e-03  2.47e-04     0.3
   25    -297.0876892518917316    -1.83e-05  5.97e-04  2.12e-03  5.23e-04     0.3
   26    -297.0877072438506161    -1.80e-05  7.76e-04  3.17e-03  2.22e-04     0.4
   27    -297.0877156531198011    -8.41e-06  2.36e-04  1.01e-03  2.36e-04     0.3
   28    -297.0877210197838281    -5.37e-06  1.56e-04  1.28e-03  1.68e-04     0.4
   29    -297.0877222520584269    -1.23e-06  1.06e-04  9.40e-04  8.97e-05     0.8
   30    -297.0877233913658415    -1.14e-06  6.78e-05  3.25e-04  3.25e-05     0.3
   31    -297.0877236562715211    -2.65e-07  5.84e-05  2.03e-04  1.87e-05     0.3
   32    -297.0877237168814986    -6.06e-08  1.67e-05  1.14e-04  1.48e-05     0.3
               *** Restarting incremental Fock matrix formation ***
   33    -297.0877237442541059    -2.74e-08  8.20e-06  4.63e-05  4.77e-06     0.4
   34    -297.0877237481951738    -3.94e-09  6.93e-06  5.50e-05  3.86e-06     0.3
                 **** Energy Check signals convergence ****

               *****************************************************
               *                     SUCCESS                       *
               *           SCF CONVERGED AFTER  34 CYCLES          *
               *****************************************************

             **** ENERGY FILE WAS UPDATED (cuboctahedron_nn2.00_perturb1.en.tmp) ****

----------------
TOTAL SCF ENERGY
----------------

Total Energy       :       -297.08772375165375 Eh           -8084.16795 eV

Components:
Nuclear Repulsion  :        322.25662457078857 Eh            8769.04856 eV
Electronic Energy  :       -619.34434832244233 Eh          -16853.21652 eV
One Electron Energy:      -1032.51676783300445 Eh          -28096.20964 eV
Two Electron Energy:        413.17241951056218 Eh           11242.99312 eV

Virial components:
Potential Energy   :       -588.38694387626356 Eh          -16010.82272 eV
Kinetic Energy     :        291.29922012460986 Eh            7926.65476 eV
Virial Ratio       :          2.01987133238657

DFT components:
N(Alpha)           :       29.999902192970 electrons
N(Beta)            :       29.999902192970 electrons
N(Total)           :       59.999804385940 electrons
E(X)               :      -45.435660128260 Eh       
E(C)               :       -1.970796783053 Eh       
E(XC)              :      -47.406456911313 Eh       

---------------
SCF CONVERGENCE
---------------

  Last Energy change         ...    3.9411e-09  Tolerance :   1.0000e-08
  Last MAX-Density change    ...    5.5003e-05  Tolerance :   1.0000e-07
  Last RMS-Density change    ...    6.9302e-06  Tolerance :   5.0000e-09
  Last DIIS Error            ...    7.7184e-04  Tolerance :   5.0000e-07
  Last Orbital Gradient      ...    3.8585e-06  Tolerance :   1.0000e-05
  Last Orbital Rotation      ...    9.6961e-05  Tolerance :   1.0000e-05


----------------
ORBITAL ENERGIES
----------------

  NO   OCC          E(Eh)            E(eV) 
   0   2.0000      -6.655535      -181.1063 
   1   2.0000      -6.644300      -180.8006 
   2   2.0000      -6.638934      -180.6546 
   3   2.0000      -6.634949      -180.5462 
   4   2.0000      -6.633810      -180.5151 
   5   2.0000      -6.633034      -180.4940 
   6   2.0000      -6.629486      -180.3975 
   7   2.0000      -6.629416      -180.3956 
   8   2.0000      -6.621731      -180.1865 
   9   2.0000      -6.617390      -180.0683 
  10   2.0000      -6.607650      -179.8033 
  11   2.0000      -6.603016      -179.6772 
  12   2.0000      -0.624791       -17.0014 
  13   2.0000      -0.538811       -14.6618 
  14   2.0000      -0.526091       -14.3157 
  15   2.0000      -0.509096       -13.8532 
  16   2.0000      -0.430586       -11.7168 
  17   2.0000      -0.423082       -11.5126 
  18   2.0000      -0.394422       -10.7328 
  19   2.0000      -0.368286       -10.0216 
  20   2.0000      -0.357173        -9.7192 
  21   2.0000      -0.327060        -8.8998 
  22   2.0000      -0.290501        -7.9049 
  23   2.0000      -0.271807        -7.3963 
  24   2.0000      -0.250670        -6.8211 
  25   2.0000      -0.242665        -6.6032 
  26   2.0000      -0.242036        -6.5861 
  27   2.0000      -0.229124        -6.2348 
  28   2.0000      -0.221043        -6.0149 
  29   2.0000      -0.206052        -5.6069 
  30   0.0000      -0.207888        -5.6569 
  31   0.0000      -0.199607        -5.4316 
  32   0.0000      -0.173905        -4.7322 
  33   0.0000      -0.160164        -4.3583 
  34   0.0000      -0.150250        -4.0885 
  35   0.0000      -0.138726        -3.7749 
  36   0.0000      -0.133662        -3.6371 
  37   0.0000      -0.120234        -3.2717 
  38   0.0000      -0.111374        -3.0306 
  39   0.0000      -0.099171        -2.6986 
  40   0.0000      -0.040488        -1.1017 
*Only the first 10 virtual orbitals were printed.

                    ********************************
                    * MULLIKEN POPULATION ANALYSIS *
                    ********************************

-----------------------
MULLIKEN ATOMIC CHARGES
-----------------------
   0 B :   -0.008338
   1 B :    0.055084
   2 B :   -0.030068
   3 B :   -0.064790
   4 B :    0.093375
   5 B :   -0.049363
   6 B :    0.004283
   7 B :   -0.080753
   8 B :    0.060828
   9 B :   -0.039558
  10 B :    0.006829
  11 B :    0.052470
Sum of atomic charges:    0.0000000

--------------------------------
MULLIKEN REDUCED ORBITAL CHARGES
--------------------------------
  0 B s       :     3.249114  s :     3.249114
      pz      :     0.497061  p :     1.720349
      px      :     0.585688
      py      :     0.637600
      dz2     :     0.009231  d :     0.038876
      dxz     :     0.008622
      dyz     :     0.004884
      dx2y2   :     0.008198
      dxy     :     0.007940

  1 B s       :     3.390744  s :     3.390744
      pz      :     0.463259  p :     1.518986
      px      :     0.447710
      py      :     0.608017
      dz2     :     0.008137  d :     0.035186
      dxz     :     0.004515
      dyz     :     0.007145
      dx2y2   :     0.007584
      dxy     :     0.007804

  2 B s       :     3.361663  s :     3.361663
      pz      :     0.588041  p :     1.629570
      px      :     0.525215
      py      :     0.516314
      dz2     :     0.009569  d :     0.038835
      dxz     :     0.006911
      dyz     :     0.008298
      dx2y2   :     0.008807
      dxy     :     0.005250

  3 B s       :     3.360154  s :     3.360154
      pz      :     0.499758  p :     1.671666
      px      :     0.512978
      py      :     0.658931
      dz2     :     0.008047  d :     0.032970
      dxz     :     0.007925
      dyz     :     0.005029
      dx2y2   :     0.006129
      dxy     :     0.005841

  4 B s       :     3.374551  s :     3.374551
      pz      :     0.438413  p :     1.496881
      px      :     0.415412
      py      :     0.643056
      dz2     :     0.007989  d :     0.035194
      dxz     :     0.004365
      dyz     :     0.007947
      dx2y2   :     0.007020
      dxy     :     0.007872

  5 B s       :     3.141505  s :     3.141505
      pz      :     0.600236  p :     1.870067
      px      :     0.579917
      py      :     0.689914
      dz2     :     0.010813  d :     0.037790
      dxz     :     0.007173
      dyz     :     0.008277
      dx2y2   :     0.005674
      dxy     :     0.005853

  6 B s       :     3.334064  s :     3.334064
      pz      :     0.477834  p :     1.625365
      px      :     0.584454
      py      :     0.563077
      dz2     :     0.006734  d :     0.036287
      dxz     :     0.007398
      dyz     :     0.004966
      dx2y2   :     0.009182
      dxy     :     0.008007

  7 B s       :     3.377841  s :     3.377841
      pz      :     0.575437  p :     1.669019
      px      :     0.459717
      py      :     0.633865
      dz2     :     0.005778  d :     0.033893
      dxz     :     0.004300
      dyz     :     0.007117
      dx2y2   :     0.008262
      dxy     :     0.008436

  8 B s       :     3.260004  s :     3.260004
      pz      :     0.658351  p :     1.641685
      px      :     0.435062
      py      :     0.548272
      dz2     :     0.009219  d :     0.037482
      dxz     :     0.008754
      dyz     :     0.007677
      dx2y2   :     0.006580
      dxy     :     0.005251

  9 B s       :     3.555706  s :     3.555706
      pz      :     0.420384  p :     1.455473
      px      :     0.573472
      py      :     0.461617
      dz2     :     0.006436  d :     0.028379
      dxz     :     0.007021
      dyz     :     0.002851
      dx2y2   :     0.005981
      dxy     :     0.006089

 10 B s       :     3.614093  s :     3.614093
      pz      :     0.468544  p :     1.352784
      px      :     0.382809
      py      :     0.501431
      dz2     :     0.006092  d :     0.026294
      dxz     :     0.003046
      dyz     :     0.005273
      dx2y2   :     0.005155
      dxy     :     0.006729

 11 B s       :     3.560606  s :     3.560606
      pz      :     0.519697  p :     1.359770
      px      :     0.367736
      py      :     0.472337
      dz2     :     0.004717  d :     0.027154
      dxz     :     0.005883
      dyz     :     0.007178
      dx2y2   :     0.006546
      dxy     :     0.002830



                     *******************************
                     * LOEWDIN POPULATION ANALYSIS *
                     *******************************

----------------------
LOEWDIN ATOMIC CHARGES
----------------------
   0 B :    0.007794
   1 B :    0.007652
   2 B :    0.000591
   3 B :   -0.033407
   4 B :    0.031778
   5 B :   -0.092202
   6 B :   -0.002401
   7 B :    0.027662
   8 B :   -0.061321
   9 B :    0.096372
  10 B :    0.052306
  11 B :   -0.034824

-------------------------------
LOEWDIN REDUCED ORBITAL CHARGES
-------------------------------
  0 B s       :     2.900420  s :     2.900420
      pz      :     0.627722  p :     2.002956
      px      :     0.712125
      py      :     0.663109
      dz2     :     0.019502  d :     0.088830
      dxz     :     0.024643
      dyz     :     0.008656
      dx2y2   :     0.014082
      dxy     :     0.021947

  1 B s       :     2.959126  s :     2.959126
      pz      :     0.631080  p :     1.953915
      px      :     0.612890
      py      :     0.709945
      dz2     :     0.014811  d :     0.079306
      dxz     :     0.007576
      dyz     :     0.021538
      dx2y2   :     0.013762
      dxy     :     0.021620

  2 B s       :     2.959501  s :     2.959501
      pz      :     0.713310  p :     1.957145
      px      :     0.614775
      py      :     0.629060
      dz2     :     0.015748  d :     0.082763
      dxz     :     0.017685
      dyz     :     0.024774
      dx2y2   :     0.017480
      dxy     :     0.007076

  3 B s       :     2.972229  s :     2.972229
      pz      :     0.641434  p :     1.985991
      px      :     0.638879
      py      :     0.705677
      dz2     :     0.017012  d :     0.075187
      dxz     :     0.022277
      dyz     :     0.007546
      dx2y2   :     0.011250
      dxy     :     0.017103

  4 B s       :     2.986187  s :     2.986187
      pz      :     0.601449  p :     1.901732
      px      :     0.551752
      py      :     0.748530
      dz2     :     0.014492  d :     0.080303
      dxz     :     0.006747
      dyz     :     0.023530
      dx2y2   :     0.014182
      dxy     :     0.021352

  5 B s       :     2.865548  s :     2.865548
      pz      :     0.739906  p :     2.135442
      px      :     0.671287
      py      :     0.724249
      dz2     :     0.021211  d :     0.091212
      dxz     :     0.024136
      dyz     :     0.024202
      dx2y2   :     0.012948
      dxy     :     0.008715

  6 B s       :     2.938736  s :     2.938736
      pz      :     0.603685  p :     1.978907
      px      :     0.704837
      py      :     0.670384
      dz2     :     0.014773  d :     0.084759
      dxz     :     0.020584
      dyz     :     0.008129
      dx2y2   :     0.016687
      dxy     :     0.024586

  7 B s       :     2.982793  s :     2.982793
      pz      :     0.580932  p :     1.911534
      px      :     0.583449
      py      :     0.747154
      dz2     :     0.012220  d :     0.078010
      dxz     :     0.006711
      dyz     :     0.018870
      dx2y2   :     0.015674
      dxy     :     0.024534

  8 B s       :     2.912578  s :     2.912578
      pz      :     0.802287  p :     2.058921
      px      :     0.587107
      py      :     0.669527
      dz2     :     0.020108  d :     0.089823
      dxz     :     0.028709
      dyz     :     0.018962
      dx2y2   :     0.012277
      dxy     :     0.009767

  9 B s       :     3.094036  s :     3.094036
      pz      :     0.534955  p :     1.749469
      px      :     0.686851
      py      :     0.527664
      dz2     :     0.012161  d :     0.060123
      dxz     :     0.018657
      dyz     :     0.004099
      dx2y2   :     0.010176
      dxy     :     0.015031

 10 B s       :     3.194535  s :     3.194535
      pz      :     0.561996  p :     1.698947
      px      :     0.529400
      py      :     0.607551
      dz2     :     0.010144  d :     0.054212
      dxz     :     0.004639
      dyz     :     0.013465
      dx2y2   :     0.010441
      dxy     :     0.015523

 11 B s       :     3.140004  s :     3.140004
      pz      :     0.645074  p :     1.834649
      px      :     0.488176
      py      :     0.701399
      dz2     :     0.007554  d :     0.060170
      dxz     :     0.013088
      dyz     :     0.021067
      dx2y2   :     0.013930
      dxy     :     0.004530



                      *****************************
                      * MAYER POPULATION ANALYSIS *
                      *****************************

  NA   - Mulliken gross atomic population
  ZA   - Total nuclear charge
  QA   - Mulliken gross atomic charge
  VA   - Mayer's total valence
  BVA  - Mayer's bonded valence
  FA   - Mayer's free valence

  ATOM       NA         ZA         QA         VA         BVA        FA
  0 B      5.0083     5.0000    -0.0083     3.2621     3.2621    -0.0000
  1 B      4.9449     5.0000     0.0551     3.0047     3.0047    -0.0000
  2 B      5.0301     5.0000    -0.0301     3.1077     3.1077     0.0000
  3 B      5.0648     5.0000    -0.0648     3.1445     3.1445     0.0000
  4 B      4.9066     5.0000     0.0934     2.8671     2.8671     0.0000
  5 B      5.0494     5.0000    -0.0494     3.2966     3.2966    -0.0000
  6 B      4.9957     5.0000     0.0043     3.0789     3.0789    -0.0000
  7 B      5.0808     5.0000    -0.0808     3.0589     3.0589    -0.0000
  8 B      4.9392     5.0000     0.0608     2.9493     2.9493     0.0000
  9 B      5.0396     5.0000    -0.0396     2.8178     2.8178     0.0000
 10 B      4.9932     5.0000     0.0068     2.5880     2.5880    -0.0000
 11 B      4.9475     5.0000     0.0525     2.6858     2.6858     0.0000

  Mayer bond orders larger than 0.100000
B(  0-B ,  1-B ) :   0.5022 B(  0-B ,  2-B ) :   0.5057 B(  0-B ,  3-B ) :   0.2516 
B(  0-B ,  6-B ) :   0.1357 B(  0-B ,  7-B ) :   0.5431 B(  0-B ,  8-B ) :   0.8188 
B(  0-B , 10-B ) :   0.1172 B(  0-B , 11-B ) :   0.1361 B(  1-B ,  2-B ) :   0.4818 
B(  1-B ,  4-B ) :   0.1769 B(  1-B ,  5-B ) :   0.6505 B(  1-B ,  6-B ) :   0.5487 
B(  1-B ,  9-B ) :   0.1926 B(  1-B , 10-B ) :   0.1785 B(  1-B , 11-B ) :   0.1008 
B(  2-B ,  3-B ) :   0.4818 B(  2-B ,  4-B ) :   0.6198 B(  2-B ,  5-B ) :   0.1418 
B(  2-B ,  8-B ) :   0.2580 B(  2-B ,  9-B ) :   0.1412 B(  2-B , 10-B ) :   0.1090 
B(  2-B , 11-B ) :   0.2499 B(  3-B ,  4-B ) :   0.5281 B(  3-B ,  6-B ) :   0.1683 
B(  3-B ,  7-B ) :   0.1422 B(  3-B ,  8-B ) :   0.7478 B(  3-B ,  9-B ) :   0.1508 
B(  3-B , 10-B ) :   0.5072 B(  4-B ,  5-B ) :   0.4766 B(  4-B ,  6-B ) :   0.1598 
B(  4-B ,  8-B ) :   0.1796 B(  4-B ,  9-B ) :   0.4389 B(  5-B ,  6-B ) :   0.7646 
B(  5-B ,  7-B ) :   0.2199 B(  5-B ,  8-B ) :   0.1079 B(  5-B ,  9-B ) :   0.5914 
B(  5-B , 11-B ) :   0.1104 B(  6-B ,  7-B ) :   0.6702 B(  6-B ,  9-B ) :   0.1818 
B(  6-B , 11-B ) :   0.2835 B(  7-B ,  8-B ) :   0.3228 B(  7-B ,  9-B ) :   0.1110 
B(  7-B , 10-B ) :   0.2197 B(  7-B , 11-B ) :   0.5993 B(  8-B , 10-B ) :   0.3798 
B(  9-B , 10-B ) :   0.3263 B(  9-B , 11-B ) :   0.5644 B( 10-B , 11-B ) :   0.5076 


-------
TIMINGS
-------

Total SCF time: 0 days 0 hours 0 min 19 sec 

Total time                  ....      19.163 sec
Sum of individual times     ....      18.774 sec  ( 98.0%)

SCF preparation             ....       0.606 sec  (  3.2%)
Fock matrix formation       ....      13.818 sec  ( 72.1%)
  Startup                   ....       0.037 sec  (  0.3% of F)
  Split-RI-J                ....       3.686 sec  ( 26.7% of F)
  XC integration            ....       9.084 sec  ( 65.7% of F)
    XC Preparation          ....       0.000 sec  (  0.0% of XC)
    Basis function eval.    ....       1.671 sec  ( 18.4% of XC)
    Density eval.           ....       1.222 sec  ( 13.4% of XC)
    XC-Functional eval.     ....       0.202 sec  (  2.2% of XC)
    XC-Potential eval.      ....       1.607 sec  ( 17.7% of XC)
Diagonalization             ....       0.000 sec  (  0.0%)
Density matrix formation    ....       0.855 sec  (  4.5%)
Total Energy calculation    ....       0.756 sec  (  3.9%)
Population analysis         ....       0.037 sec  (  0.2%)
Orbital Transformation      ....       0.147 sec  (  0.8%)
Orbital Orthonormalization  ....       0.000 sec  (  0.0%)
DIIS solution               ....       1.895 sec  (  9.9%)
SOSCF solution              ....       0.659 sec  (  3.4%)
Finished LeanSCF after  19.2 sec

Maximum memory used throughout the entire LEANSCF-calculation: 10.2 MB


-------------------------------------------------------------------------------
                          DFT DISPERSION CORRECTION                            
                                                                               
                              DFTD3 V3.1  Rev 1                                
                          USING Becke-Johnson damping                          
-------------------------------------------------------------------------------
The BP86 functional is recognized
Active option DFTDOPT                   ...         4   

molecular C6(AA) [au] = 6956.864034 


            DFT-D V3
 parameters
 s6 scaling factor         :     1.0000 
 a1 scaling factor         :     0.3946 
 s8 scaling factor         :     3.2822 
 a2 scaling factor         :     4.8516 
 ad hoc parameters k1-k3   :    16.0000     1.3333    -4.0000 

 Edisp/kcal,au: -35.096213022603  -0.055929369563 
 E6   /kcal   :  -9.981381966 
 E8   /kcal   : -25.114831057 
 % E8         :  71.559945914 

-------------------------   ----------------
Dispersion correction           -0.055929370
-------------------------   ----------------


-------------------------   --------------------
FINAL SINGLE POINT ENERGY      -297.143653121216
-------------------------   --------------------



           ************************************************************
           *        Program running with 8 parallel MPI-processes     *
           *              working on a common directory               *
           ************************************************************
------------------------------------------------------------------------------
                         ORCA SCF GRADIENT CALCULATION
------------------------------------------------------------------------------

Nuc. rep. gradient        (SHARK) ... done (  0.0 sec)
HCore & Overlap gradient  (SHARK) ... done (  0.1 sec)
Split-RIJ-J gradient      (SHARK) ... done (  0.5 sec)
XC gradient                       ... done (  1.1 sec)
Dispersion correction             ... done (  0.1 sec)

-------------------
DISPERSION GRADIENT
-------------------

   1   B   :   -0.003271003    0.009018777    0.005563443
   2   B   :    0.010433766   -0.002521463    0.006841819
   3   B   :    0.007966514    0.008048261   -0.004095542
   4   B   :   -0.003476339    0.004254016   -0.005529103
   5   B   :    0.009130624    0.002079704   -0.005109091
   6   B   :    0.002308314   -0.004662321    0.002077350
   7   B   :   -0.000681778   -0.008842268    0.003195779
   8   B   :   -0.009535878   -0.000197686    0.005310733
   9   B   :   -0.000830218    0.005840589    0.001952573
  10   B   :   -0.003804367   -0.005363401   -0.004865755
  11   B   :   -0.003465460   -0.000141003   -0.004605031
  12   B   :   -0.004774175   -0.007513206   -0.000737175

Difference to translation invariance:
           :   -0.0000000000    0.0000000000   -0.0000000000

Difference to rotation invariance:
           :   -0.0000000000   -0.0000000000   -0.0000000000

Norm of the Dispersion gradient    ...    0.0325968277
RMS gradient                       ...    0.0054328046
MAX gradient                       ...    0.0104337661

------------------
CARTESIAN GRADIENT
------------------

   1   B   :    0.004466672   -0.027548944   -0.023891291
   2   B   :   -0.043460009    0.000553794   -0.037169038
   3   B   :   -0.034887390   -0.013842522   -0.008490854
   4   B   :   -0.014201153   -0.026342053    0.050330805
   5   B   :   -0.041810943    0.001577462    0.026979405
   6   B   :   -0.032398751    0.023414983    0.010802515
   7   B   :    0.000804527    0.022186069   -0.038507917
   8   B   :    0.038554218   -0.017065169   -0.023276221
   9   B   :    0.040552581   -0.013510693   -0.025014166
  10   B   :    0.002907087    0.022094265    0.048118648
  11   B   :    0.048856191   -0.004346464    0.028563332
  12   B   :    0.030616971    0.032829271   -0.008445218

Difference to translation invariance:
           :   -0.0000000000   -0.0000000000    0.0000000000

Difference to rotation invariance:
           :    0.0002983268   -0.0000381749   -0.0000460120

Norm of the Cartesian gradient     ...    0.1690892455
RMS gradient                       ...    0.0281815409
MAX gradient                       ...    0.0503308046

-------
TIMINGS
-------

Total SCF gradient time     ....        1.654 sec

Densities                   ....       0.001 sec  (  0.1%)
One electron gradient       ....       0.065 sec  (  3.9%)
RI-J Coulomb gradient       ....       0.462 sec  ( 28.0%)
XC gradient                 ....       1.056 sec  ( 63.8%)

Maximum memory used throughout the entire SCFGRAD-calculation: 29.7 MB
------------------------------------------------------------------------------
                         ORCA GEOMETRY RELAXATION STEP
------------------------------------------------------------------------------

Reading the OPT-File                    .... done
Getting information on internals        .... done
Copying old internal coords+grads       .... done
Making the new internal coordinates     .... (2022 redundants) done
Validating the new internal coordinates .... (2022 redundants) done
Calculating the B-matrix                .... done
Calculating the G,G- and P matrices     .... done
Transforming gradient to internals      .... done
Projecting the internal gradient        .... done
Number of atoms                         ....  12
Number of internal coordinates          .... 109
Current Energy                          ....  -297.143653121 Eh
Current gradient norm                   ....     0.169089246 Eh/bohr
Maximum allowed component of the step   ....  0.300
Current trust radius                    ....  0.300
Evaluating the initial hessian          ....  (Almloef) done
Projecting the Hessian                  .... done
Forming the augmented Hessian           .... done
Diagonalizing the augmented Hessian     .... done
Last element of RFO vector              ....  0.794764713
Lowest eigenvalues of augmented Hessian:
 -0.131562052  0.020379425  0.026295503  0.031215672  0.034295536
Length of the computed step             ....  0.763644453
Warning: the length of the step is outside the trust region - taking restricted step instead
The input lambda is                     ....     0.018768
   iter:   5  x=    0.007993  g= 3323.692852 f(x)=    17.910852
   iter:  10  x=   -0.233425  g=    4.820135 f(x)=     0.453093
   iter:  15  x=   -0.478751  g=    0.310212 f(x)=     0.000020
The output lambda is                    ....    -0.478751 (17 iterations)
The final length of the internal step   ....  0.300000000
Converting the step to Cartesian space:
 Initial RMS(Int)=    0.0287347886
Transforming coordinates:
 Iter   0:  RMS(Cart)=    0.0716440190 RMS(Int)=    0.0286357216
done
Storing new coordinates                 .... done

                                .--------------------.
          ----------------------|Geometry convergence|-------------------------
          Item                value                   Tolerance       Converged
          ---------------------------------------------------------------------
          RMS gradient        0.0168634946            0.0001000000      NO
          MAX gradient        0.0613428199            0.0003000000      NO
          RMS step            0.0287347886            0.0020000000      NO
          MAX step            0.1022711014            0.0040000000      NO
          -------------------------------------------------------------------------
          ........................................................
          Max(Bonds)      0.0541      Max(Angles)    2.86
          Max(Dihed)        2.24      Max(Improp)    0.00
          ---------------------------------------------------------------------

The optimization has not yet converged - more geometry cycles are needed


    ---------------------------------------------------------------------------
                         Redundant Internal Coordinates
                            (Angstroem and degrees)

        Definition                    Value    dE/dq     Step     New-Value
    ----------------------------------------------------------------------------
     1. B(B   2,B   0)                2.0995  0.032618 -0.0310    2.0685   
     2. B(B   2,B   1)                2.0294  0.020802 -0.0195    2.0099   
     3. B(B   4,B   2)                1.8316  0.027919 -0.0229    1.8086   
     4. B(B   4,B   3)                2.0987  0.054942 -0.0533    2.0454   
     5. B(B   5,B   4)                2.0118  0.016594 -0.0167    1.9951   
     6. B(B   5,B   1)                1.8520  0.023860 -0.0199    1.8321   
     7. B(B   6,B   1)                1.9413  0.018911 -0.0173    1.9240   
     8. B(B   6,B   5)                1.8258  0.051808 -0.0434    1.7824   
     9. B(B   7,B   6)                1.9076  0.061343 -0.0541    1.8535   
    10. B(B   7,B   0)                1.9902  0.021049 -0.0193    1.9709   
    11. B(B   8,B   3)                1.8245  0.050143 -0.0409    1.7835   
    12. B(B   8,B   0)                1.6941  0.028951 -0.0204    1.6738   
    13. B(B   9,B   5)                1.9527  0.033221 -0.0294    1.9233   
    14. B(B   9,B   4)                2.0759  0.007256 -0.0079    2.0680   
    15. B(B  10,B   3)                2.1008  0.053743 -0.0515    2.0493   
    16. B(B  11,B  10)                2.0973  0.036666 -0.0351    2.0622   
    17. B(B  11,B   7)                1.9268  0.023900 -0.0217    1.9051   
    18. A(B   2,B   0,B   8)           82.95  0.013464   -1.23     81.72   
    19. A(B   2,B   0,B   7)          117.86  0.008284   -0.74    117.12   
    20. A(B   7,B   0,B   8)           76.37 -0.008420    0.64     77.01   
    21. A(B   5,B   1,B   6)           57.49  0.010021   -0.88     56.60   
    22. A(B   2,B   1,B   5)           90.29 -0.005379    0.45     90.74   
    23. A(B   2,B   1,B   6)          116.12 -0.005230    0.52    116.64   
    24. A(B   0,B   2,B   1)           64.04  0.005531   -0.62     63.42   
    25. A(B   1,B   2,B   4)           88.39  0.004586   -0.40     87.99   
    26. A(B   0,B   2,B   4)          118.36  0.005234   -0.52    117.84   
    27. A(B   8,B   3,B  10)           67.29 -0.007376    0.57     67.87   
    28. A(B   4,B   3,B  10)          101.83  0.030848   -2.86     98.97   
    29. A(B   4,B   3,B   8)          115.94  0.002220   -0.03    115.91   
    30. A(B   3,B   4,B   5)          116.76 -0.003612    0.37    117.13   
    31. A(B   2,B   4,B   5)           91.43 -0.005466    0.47     91.90   
    32. A(B   3,B   4,B   9)           86.43  0.002008   -0.25     86.19   
    33. A(B   2,B   4,B   9)          121.86  0.012132   -1.25    120.61   
    34. A(B   2,B   4,B   3)           64.53  0.006309   -0.60     63.93   
    35. A(B   5,B   4,B   9)           57.04  0.006509   -0.57     56.47   
    36. A(B   6,B   5,B   9)           98.38  0.012796   -1.26     97.12   
    37. A(B   4,B   5,B   9)           63.13 -0.005790    0.54     63.67   
    38. A(B   1,B   5,B   9)          130.24  0.013327   -1.34    128.90   
    39. A(B   4,B   5,B   6)          124.39 -0.005110    0.52    124.91   
    40. A(B   1,B   5,B   6)           63.72 -0.007033    0.58     64.30   
    41. A(B   1,B   5,B   4)           88.36  0.006759   -0.56     87.80   
    42. A(B   1,B   6,B   7)          101.67  0.009138   -0.88    100.79   
    43. A(B   1,B   6,B   5)           58.80 -0.002989    0.30     59.10   
    44. A(B   5,B   6,B   7)          118.21  0.007835   -0.86    117.35   
    45. A(B   0,B   7,B  11)          131.75  0.010310   -1.14    130.62   
    46. A(B   0,B   7,B   6)           86.54 -0.013023    1.11     87.65   
    47. A(B   6,B   7,B  11)           76.89  0.023109   -2.15     74.74   
    48. A(B   0,B   8,B   3)          108.88 -0.008045    0.44    109.32   
    49. A(B   4,B   9,B   5)           59.82 -0.000719    0.03     59.85   
    50. A(B   3,B  10,B  11)          120.58 -0.011908    1.08    121.66   
    51. A(B   7,B  11,B  10)           83.01  0.007973   -0.67     82.34   
    52. D(B   0,B   2,B   1,B   5)   -113.09 -0.003330    0.28   -112.80   
    53. D(B   4,B   2,B   1,B   5)      9.74 -0.001894    0.13      9.87   
    54. D(B   4,B   2,B   1,B   6)     63.14  0.008436   -0.81     62.33   
    55. D(B   4,B   2,B   0,B   7)     -1.78 -0.000054    0.20     -1.58   
    56. D(B   1,B   2,B   0,B   7)     70.87  0.006434   -0.42     70.45   
    57. D(B   1,B   2,B   0,B   8)    141.36  0.002042   -0.18    141.19   
    58. D(B   4,B   2,B   0,B   8)     68.71 -0.004445    0.44     69.15   
    59. D(B   0,B   2,B   1,B   6)    -59.68  0.006999   -0.66    -60.35   
    60. D(B   5,B   4,B   2,B   0)     50.19  0.009057   -0.91     49.28   
    61. D(B   5,B   4,B   2,B   1)     -8.96  0.001370   -0.10     -9.06   
    62. D(B   2,B   4,B   3,B   8)     50.25 -0.011436    1.18     51.44   
    63. D(B   3,B   4,B   2,B   1)   -128.11  0.004053   -0.42   -128.52   
    64. D(B   2,B   4,B   3,B  10)    120.58 -0.005912    0.55    121.13   
    65. D(B   9,B   4,B   3,B   8)    -77.74 -0.021787    2.24    -75.49   
    66. D(B   5,B   4,B   3,B  10)     42.66 -0.005027    0.55     43.21   
    67. D(B   5,B   4,B   3,B   8)    -27.67 -0.010551    1.18    -26.49   
    68. D(B   9,B   4,B   2,B   0)     -1.11  0.010710   -1.14     -2.25   
    69. D(B   3,B   4,B   2,B   0)    -68.95  0.011739   -1.23    -70.18   
    70. D(B   6,B   5,B   4,B   9)     81.45  0.016086   -1.62     79.83   
    71. D(B   6,B   5,B   4,B   3)     15.65  0.004270   -0.43     15.23   
    72. D(B   1,B   5,B   4,B   9)    137.64  0.015101   -1.58    136.06   
    73. D(B   1,B   5,B   4,B   3)     71.85  0.003286   -0.39     71.45   
    74. D(B   1,B   5,B   4,B   2)      9.83 -0.001758    0.12      9.95   
    75. D(B   9,B   5,B   1,B   6)    -78.18 -0.003004    0.39    -77.79   
    76. D(B   6,B   5,B   1,B   2)    121.26 -0.006339    0.65    121.91   
    77. D(B   6,B   5,B   4,B   2)    -46.37 -0.000773    0.09    -46.27   
    78. D(B   9,B   5,B   1,B   2)     43.08 -0.009342    1.04     44.12   
    79. D(B   4,B   5,B   1,B   6)   -130.11  0.007491   -0.73   -130.85   
    80. D(B   4,B   5,B   1,B   2)     -8.86  0.001153   -0.08     -8.94   
    81. D(B   7,B   6,B   1,B   2)     43.86  0.000058   -0.08     43.79   
    82. D(B   5,B   6,B   1,B   2)    -72.19 -0.004077    0.44    -71.75   
    83. D(B   7,B   6,B   5,B   9)     44.20  0.004905   -0.57     43.63   
    84. D(B   7,B   6,B   5,B   4)    -18.89  0.002203   -0.27    -19.15   
    85. D(B   7,B   6,B   5,B   1)    -86.76 -0.005192    0.43    -86.33   
    86. D(B   1,B   6,B   5,B   9)    130.96  0.010097   -1.00    129.96   
    87. D(B   1,B   6,B   5,B   4)     67.87  0.007395   -0.69     67.18   
    88. D(B   7,B   6,B   1,B   5)    116.05  0.004135   -0.52    115.53   
    89. D(B  11,B   7,B   6,B   5)    -68.08 -0.011744    1.36    -66.72   
    90. D(B  11,B   7,B   6,B   1)   -128.77 -0.012405    1.40   -127.37   
    91. D(B   0,B   7,B   6,B   5)     66.28 -0.002883    0.38     66.66   
    92. D(B   0,B   7,B   6,B   1)      5.58 -0.003544    0.42      6.01   
    93. D(B  11,B   7,B   0,B   8)    -62.07  0.012498   -1.35    -63.42   
    94. D(B  11,B   7,B   0,B   2)     12.21  0.020137   -2.14     10.07   
    95. D(B   6,B   7,B   0,B   8)   -131.06 -0.002920    0.11   -130.95   
    96. D(B   6,B   7,B   0,B   2)    -56.78  0.004719   -0.68    -57.46   
    97. D(B   0,B   8,B   3,B  10)   -116.10 -0.020728    1.91   -114.19   
    98. D(B   0,B   8,B   3,B   4)    -23.60  0.011365   -1.19    -24.78   
    99. D(B   3,B   8,B   0,B   7)    106.85  0.005097   -0.44    106.41   
   100. D(B   3,B   8,B   0,B   2)    -14.11 -0.001392    0.10    -14.01   
   101. D(B   4,B   9,B   5,B   6)   -124.43  0.011384   -1.14   -125.57   
   102. D(B   4,B   9,B   5,B   1)    -61.92  0.009542   -1.10    -63.02   
   103. D(B   5,B   9,B   4,B   3)    125.32 -0.009891    1.00    126.32   
   104. D(B   5,B   9,B   4,B   2)     68.41 -0.013667    1.36     69.77   
   105. D(B  11,B  10,B   3,B   8)     77.25 -0.007219    0.90     78.15   
   106. D(B  11,B  10,B   3,B   4)    -36.12  0.001991   -0.14    -36.27   
   107. D(B   7,B  11,B  10,B   3)    -58.94  0.012112   -1.33    -60.27   
   108. D(B  10,B  11,B   7,B   6)    122.49 -0.011199    1.11    123.60   
   109. D(B  10,B  11,B   7,B   0)     49.41 -0.010388    1.09     50.50   
    ----------------------------------------------------------------------------

Geometry step timings:
Preparation and reading OPT file:      0.000 s ( 0.822 %)
Internal coordinates            :      0.000 s ( 0.941 %)
B/P matrices and projection     :      0.003 s (25.580 %)
Hessian update/contruction      :      0.002 s (15.434 %)
Making the step                 :      0.003 s (31.872 %)
Converting the step to Cartesian:      0.001 s ( 7.991 %)
Storing new data                :      0.000 s ( 1.635 %)
Checking convergence            :      0.000 s ( 1.123 %)
Final printing                  :      0.002 s (14.575 %)
Total time                      :      0.011 s

[...]
      dxz     :     0.014633
      dyz     :     0.015096
      dx2y2   :     0.015223
      dxy     :     0.015161

  9 B s       :     3.220150  s :     3.220150
      pz      :     0.430961  p :     1.893118
      px      :     0.928257
      py      :     0.533900
      dz2     :     0.006952  d :     0.048199
      dxz     :     0.009702
      dyz     :     0.008902
      dx2y2   :     0.010020
      dxy     :     0.012622

 10 B s       :     2.930597  s :     2.930597
      pz      :     0.802891  p :     2.228971
      px      :     0.639575
      py      :     0.786505
      dz2     :     0.014012  d :     0.061137
      dxz     :     0.011553
      dyz     :     0.014661
      dx2y2   :     0.011051
      dxy     :     0.009859

 11 B s       :     2.840739  s :     2.840739
      pz      :     0.708365  p :     2.065717
      px      :     0.585366
      py      :     0.771986
      dz2     :     0.007749  d :     0.051193
      dxz     :     0.008344
      dyz     :     0.007380
      dx2y2   :     0.014431
      dxy     :     0.013289



                     *******************************
                     * LOEWDIN POPULATION ANALYSIS *
                     *******************************

----------------------
LOEWDIN ATOMIC CHARGES
----------------------
   0 B :   -0.047911
   1 B :   -0.025315
   2 B :   -0.004803
   3 B :   -0.018995
   4 B :    0.054059
   5 B :   -0.077112
   6 B :    0.100809
   7 B :   -0.025453
   8 B :   -0.004907
   9 B :    0.072573
  10 B :    0.054362
  11 B :   -0.077307

-------------------------------
LOEWDIN REDUCED ORBITAL CHARGES
-------------------------------
  0 B s       :     2.584758  s :     2.584758
      pz      :     0.756029  p :     2.288152
      px      :     0.827422
      py      :     0.704700
      dz2     :     0.028834  d :     0.175001
      dxz     :     0.045409
      dyz     :     0.036421
      dx2y2   :     0.030481
      dxy     :     0.033856

  1 B s       :     2.595667  s :     2.595667
      pz      :     0.756042  p :     2.251562
      px      :     0.709688
      py      :     0.785832
      dz2     :     0.041644  d :     0.178086
      dxz     :     0.025883
      dyz     :     0.037420
      dx2y2   :     0.033774
      dxy     :     0.039364

  2 B s       :     2.589758  s :     2.589758
      pz      :     0.786393  p :     2.226022
      px      :     0.786416
      py      :     0.653213
      dz2     :     0.038944  d :     0.189023
      dxz     :     0.041266
      dyz     :     0.041209
      dx2y2   :     0.038326
      dxy     :     0.029277

  3 B s       :     2.663578  s :     2.663578
      pz      :     0.756360  p :     2.214493
      px      :     0.823581
      py      :     0.634551
      dz2     :     0.035130  d :     0.140924
      dxz     :     0.041292
      dyz     :     0.022342
      dx2y2   :     0.017212
      dxy     :     0.024948

  4 B s       :     2.686182  s :     2.686182
      pz      :     0.796091  p :     2.110959
      px      :     0.522713
      py      :     0.792155
      dz2     :     0.035660  d :     0.148800
      dxz     :     0.020196
      dyz     :     0.039554
      dx2y2   :     0.025878
      dxy     :     0.027513

  5 B s       :     2.682231  s :     2.682231
      pz      :     0.774739  p :     2.263395
      px      :     0.691179
      py      :     0.797477
      dz2     :     0.020093  d :     0.131486
      dxz     :     0.021272
      dyz     :     0.024423
      dx2y2   :     0.038028
      dxy     :     0.027670

  6 B s       :     2.559688  s :     2.559688
      pz      :     0.582467  p :     2.089920
      px      :     0.785386
      py      :     0.722067
      dz2     :     0.045325  d :     0.249583
      dxz     :     0.054695
      dyz     :     0.036171
      dx2y2   :     0.045908
      dxy     :     0.067485

  7 B s       :     2.595700  s :     2.595700
      pz      :     0.754666  p :     2.251651
      px      :     0.719047
      py      :     0.777937
      dz2     :     0.041856  d :     0.178102
      dxz     :     0.026394
      dyz     :     0.036627
      dx2y2   :     0.032499
      dxy     :     0.040727

  8 B s       :     2.589953  s :     2.589953
      pz      :     0.785134  p :     2.226046
      px      :     0.803510
      py      :     0.637402
      dz2     :     0.038878  d :     0.188908
      dxz     :     0.040488
      dyz     :     0.042053
      dx2y2   :     0.036310
      dxy     :     0.031179

  9 B s       :     2.775242  s :     2.775242
      pz      :     0.508926  p :     2.034975
      px      :     0.964921
      py      :     0.561128
      dz2     :     0.016470  d :     0.117209
      dxz     :     0.024016
      dyz     :     0.024066
      dx2y2   :     0.021944
      dxy     :     0.030714

 10 B s       :     2.686089  s :     2.686089
      pz      :     0.797431  p :     2.110470
      px      :     0.538374
      py      :     0.774665
      dz2     :     0.035619  d :     0.149079
      dxz     :     0.021452
      dyz     :     0.038579
      dx2y2   :     0.027476
      dxy     :     0.025954

 11 B s       :     2.682178  s :     2.682178
      pz      :     0.776254  p :     2.263523
      px      :     0.670106
      py      :     0.817163
      dz2     :     0.019914  d :     0.131606
      dxz     :     0.022400
      dyz     :     0.023302
      dx2y2   :     0.037897
      dxy     :     0.028092



                      *****************************
                      * MAYER POPULATION ANALYSIS *
                      *****************************

  NA   - Mulliken gross atomic population
  ZA   - Total nuclear charge
  QA   - Mulliken gross atomic charge
  VA   - Mayer's total valence
  BVA  - Mayer's bonded valence
  FA   - Mayer's free valence

  ATOM       NA         ZA         QA         VA         BVA        FA
  0 B      4.9971     5.0000     0.0029     4.2663     4.2663     0.0000
  1 B      4.8695     5.0000     0.1305     4.0444     4.0444     0.0000
  2 B      4.8363     5.0000     0.1637     3.9594     3.9594     0.0000
  3 B      4.9844     5.0000     0.0156     4.1183     4.1183    -0.0000
  4 B      5.2201     5.0000    -0.2201     4.2713     4.2713    -0.0000
  5 B      4.9594     5.0000     0.0406     4.0421     4.0421    -0.0000
  6 B      5.0868     5.0000    -0.0868     3.8889     3.8889    -0.0000
  7 B      4.8695     5.0000     0.1305     4.0436     4.0436     0.0000
  8 B      4.8370     5.0000     0.1630     3.9623     3.9623     0.0000
  9 B      5.1615     5.0000    -0.1615     3.6225     3.6225     0.0000
 10 B      5.2207     5.0000    -0.2207     4.2699     4.2699    -0.0000
 11 B      4.9576     5.0000     0.0424     4.0401     4.0401     0.0000

  Mayer bond orders larger than 0.100000
B(  0-B ,  1-B ) :   0.7665 B(  0-B ,  2-B ) :   0.5529 B(  0-B ,  3-B ) :   0.3092 
B(  0-B ,  4-B ) :   0.1422 B(  0-B ,  5-B ) :   0.1737 B(  0-B ,  6-B ) :   0.6052 
B(  0-B ,  7-B ) :   0.7662 B(  0-B ,  8-B ) :   0.5526 B(  0-B , 10-B ) :   0.1415 
B(  0-B , 11-B ) :   0.1738 B(  1-B ,  2-B ) :   0.6720 B(  1-B ,  3-B ) :   0.1495 
B(  1-B ,  4-B ) :   0.5390 B(  1-B ,  5-B ) :   0.5870 B(  1-B ,  6-B ) :   0.5714 
B(  1-B ,  7-B ) :   0.2215 B(  1-B ,  8-B ) :   0.2049 B(  1-B , 11-B ) :   0.1854 
B(  2-B ,  3-B ) :   0.5316 B(  2-B ,  4-B ) :   0.5854 B(  2-B ,  5-B ) :   0.1171 
B(  2-B ,  6-B ) :   0.1735 B(  2-B ,  7-B ) :   0.2040 B(  2-B ,  8-B ) :   0.8142 
B(  2-B , 10-B ) :   0.1629 B(  3-B ,  4-B ) :   1.0874 B(  3-B ,  5-B ) :   0.1055 
B(  3-B ,  7-B ) :   0.1494 B(  3-B ,  8-B ) :   0.5322 B(  3-B , 10-B ) :   1.0866 
B(  3-B , 11-B ) :   0.1058 B(  4-B ,  5-B ) :   0.9480 B(  4-B ,  6-B ) :   0.1510 
B(  4-B ,  8-B ) :   0.1636 B(  4-B ,  9-B ) :   0.2334 B(  4-B , 10-B ) :   0.3042 
B(  5-B ,  6-B ) :   0.4906 B(  5-B ,  7-B ) :   0.1847 B(  5-B ,  9-B ) :   1.1834 
B(  5-B , 11-B ) :   0.1326 B(  6-B ,  7-B ) :   0.5710 B(  6-B ,  8-B ) :   0.1725 
B(  6-B ,  9-B ) :   0.4526 B(  6-B , 10-B ) :   0.1515 B(  6-B , 11-B ) :   0.4900 
B(  7-B ,  8-B ) :   0.6727 B(  7-B , 10-B ) :   0.5389 B(  7-B , 11-B ) :   0.5878 
B(  8-B , 10-B ) :   0.5859 B(  8-B , 11-B ) :   0.1177 B(  9-B , 10-B ) :   0.2349 
B(  9-B , 11-B ) :   1.1820 B( 10-B , 11-B ) :   0.9463 

-------
TIMINGS
-------

Total SCF time: 0 days 0 hours 0 min 3 sec 

Total time                  ....       3.696 sec
Sum of individual times     ....       3.283 sec  ( 88.8%)

SCF preparation             ....       0.680 sec  ( 18.4%)
Fock matrix formation       ....       2.183 sec  ( 59.1%)
  Startup                   ....       0.009 sec  (  0.4% of F)
  Split-RI-J                ....       0.698 sec  ( 32.0% of F)
  XC integration            ....       1.709 sec  ( 78.3% of F)
    XC Preparation          ....       0.000 sec  (  0.0% of XC)
    Basis function eval.    ....       0.356 sec  ( 20.8% of XC)
    Density eval.           ....       0.289 sec  ( 16.9% of XC)
    XC-Functional eval.     ....       0.038 sec  (  2.2% of XC)
    XC-Potential eval.      ....       0.376 sec  ( 22.0% of XC)
Diagonalization             ....       0.000 sec  (  0.0%)
Density matrix formation    ....       0.044 sec  (  1.2%)
Total Energy calculation    ....       0.017 sec  (  0.5%)
Population analysis         ....       0.127 sec  (  3.4%)
Orbital Transformation      ....       0.032 sec  (  0.9%)
Orbital Orthonormalization  ....       0.000 sec  (  0.0%)
DIIS solution               ....       0.061 sec  (  1.7%)
SOSCF solution              ....       0.140 sec  (  3.8%)
Finished LeanSCF after   3.8 sec

Maximum memory used throughout the entire LEANSCF-calculation: 11.6 MB


-------------------------------------------------------------------------------
                          DFT DISPERSION CORRECTION                            
                                                                               
                              DFTD3 V3.1  Rev 1                                
                          USING Becke-Johnson damping                          
-------------------------------------------------------------------------------
The BP86 functional is recognized
Active option DFTDOPT                   ...         4   

molecular C6(AA) [au] = 4094.972873 


            DFT-D V3
 parameters
 s6 scaling factor         :     1.0000 
 a1 scaling factor         :     0.3946 
 s8 scaling factor         :     3.2822 
 a2 scaling factor         :     4.8516 
 ad hoc parameters k1-k3   :    16.0000     1.3333    -4.0000 

 Edisp/kcal,au: -23.635879714397  -0.037666167875 
 E6   /kcal   :  -6.718998600 
 E8   /kcal   : -16.916881115 
 % E8         :  71.572885456 

-------------------------   ----------------
Dispersion correction           -0.037666168
-------------------------   ----------------


-------------------------   --------------------
FINAL SINGLE POINT ENERGY      -297.665985155928
-------------------------   --------------------

                                *** OPTIMIZATION RUN DONE ***



           ************************************************************
           *        Program running with 8 parallel MPI-processes     *
           *              working on a common directory               *
           ************************************************************

------------------------------------------------------------------------------
                              ORCA PROPERTY CALCULATIONS
------------------------------------------------------------------------------

GBWName                                 ... cuboctahedron_nn2.00_perturb1.gbw
Number of atoms                         ...     12
Number of basis functions               ...    168
Max core memory                         ...   2500 MB

Electric properties:
Dipole moment                           ... YES
Quadrupole moment                       ...  NO
Static polarizability (Dipole/Dipole)   ...  NO
Static polarizability (Dipole/Quad.)    ...  NO
Static polarizability (Quad./Quad.)     ...  NO
Static polarizability (Velocity)        ...  NO
Static hyperpolarizability              ...  NO

Atomic electric properties:
Dipole moment                           ...  NO
Quadrupole moment                       ...  NO
Static polarizability                   ...  NO

Choice of electric origin               ... Center of mass
Position of electric origin             ...    -0.032320     0.026208     0.053300

General magnetic properties:
Magnetizability                         ...  NO

EPR properties:
g-Tensor (aka g-matrix)                 ...  NO
Zero-Field splitting spin-orbit         ...  NO
Zero-field splitting spin-spin          ...  NO
Hyperfine couplings                     ...  NO (   0 nuclei)
Quadrupole couplings                    ...  NO (   0 nuclei)
Contact density                         ...  NO (   0 nuclei)

NMR properties:
Chemical shifts                         ...  NO (   0 nuclei)
Spin-rotation constants                 ...  NO (   0 nuclei)
Spin-spin couplings                     ...  NO (   0 nuclei,    0 pairs)

Choice of magnetic origin               ... GIAO
Position of magnetic origin             ...     0.000000     0.000000     0.000000

Properties with geometric perturbations:
SCF Hessian                             ...  NO
IR spectrum                             ...  NO
VCD spectrum                            ...  NO
X-ray spectroscopy properties:
SCF XES/XAS/RIXS spectra                ...  NO

SCF SOC stabilization energy            ...  NO
Diagonal Born-Oppenheimer correction    ...  NO

-------------
DIPOLE MOMENT
-------------

Method             : SCF
Type of density    : Electron Density
Multiplicity       :   1
Irrep              :   0
Energy             :  -297.6283189880526834 Eh
Basis              : AO
                                X                 Y                 Z
Electronic contribution:     -0.017263557      -0.352134097      -0.422753994
Nuclear contribution   :     -0.000000000      -0.000000000       0.000000000
                        -----------------------------------------
Total Dipole Moment    :     -0.017263557      -0.352134097      -0.422753994
                        -----------------------------------------
Magnitude (a.u.)       :      0.550470156
Magnitude (Debye)      :      1.399183941



--------------------
Rotational spectrum 
--------------------
 
Rotational constants in cm-1:             0.074004             0.069670             0.058241 
Rotational constants in MHz :          2218.597229          2088.649258          1746.030374 

Dipole components along the rotational axes: 
x,y,z [a.u.] :    -0.361328     0.001346    -0.415280 
x,y,z [Debye]:    -0.918424     0.003421    -1.055558 

 

Dipole moment calculation done in   0.0 sec 

Maximum memory used throughout the entire PROP-calculation: 9.3 MB

--------------------------------
SUGGESTED CITATIONS FOR THIS RUN
--------------------------------

Below you find a list of papers that are relevant to this ORCA run
We neither can nor want to force you to cite these papers, but we appreciate if you do
You receive ORCA, which is the product of decades of hard work by many enthusiastic individuals, for free
The only thing we kindly ask in return is that you cite our papers,
We deeply appreciate it, if you show your appreciation for ORCA by not just citing the generic ORCA reference.

Please note that relegating all ORCA citations to the supporting information does *not* help us.
SI sections are not indexed - citations you put there will not count into any citation statistics
But we need these citations in order to attract the funding resources that allow us to do what we are doing

Therefore, if you are a happy ORCA user, please consider citing a few of the papers listed below in the main body of your paper

In addition to the list printed below, the program has created the file cuboctahedron_nn2.00_perturb1.bibtex that contains the list in bibtex format
You can import this file easily into all common literature databanks and citation aid programs

It goes without saying that in many instances, there are alternative algorithms to achieve similar
results as the ones you have gotten from ORCA. It is, of course, also the case that in some instances
ORCA just re-implements algorithms worked out by others. We are fully aware of that and we are also
fully appreciative of our colleagues work. Hence this citation list should not be read as indicating
that the listed papers, which are focused on our own work, are the only ones worth citing. It simply
meant to make it easier for users to cite ORCA specific papers. It is not a substitute for doing your
own literature research and citing the relevant literature in a scientifically appropriate manner.

List of essential papers. We consider these as the minimum necessary citations

  1. Neese, F.
     Software update: the ORCA program system, version 6.0
     WIRES Comput. Molec. Sci. 2025 15(1), e70019
     doi.org/10.1002/wcms.70019

List of papers to cite with high priority. The work reported in these papers was absolutely
necessary for this run to complete.
Our perspective: the developers of density functionals and basis sets usually get cited in chemistry papers
Good! But without the algorithms to do something with them, the functionals or basis sets would not do anything.
Hence, in our opinion, the algorithm design and method developments papers are equally worthy of getting cited

  1. Neese, F.
     An improvement of the resolution of the identity approximation for the formation of the Coulomb matrix
     J. Comp. Chem. 2003 24(14), 1740-1747
     doi.org/10.1002/jcc.10318
  2. Grimme, S.; Antony, J.; Ehrlich, S.; Krieg, H.
     A consistent and accurate ab initio parametrization of density functional dispersion correction (DFT-D) for the 94 elements H-Pu
     J. Chem. Phys. 2010 132 , 154104
     doi.org/10.1063/1.3382344
  3. Grimme, S.; Ehrlich, S.; Goerigk, L.
     Effect of the damping function in dispersion corrected density functional theory
     J. Comput. Chem. 2011 32(7), 1456-1465
     doi.org/10.1002/jcc.21759
  4. Neese, F.
     The SHARK Integral Generation and Digestion System
     J. Comp. Chem. 2022 44(3), 381
     doi.org/10.1002/jcc.26942

List of suggested additional citations. These are papers that are important in the 'surrounding' of 
of this run, or papers that preceded the highly important papers. If you like your results we are grateful for a citation.

  1. Neese, F.
     The ORCA program system
     WIRES Comput. Molec. Sci. 2012 2(1), 73-78
     doi.org/10.1002/wcms.81
  2. Neese, F.
     Software update: the ORCA program system, version 4.0
     WIRES Comput. Molec. Sci. 2018 8(1), 1-6
     doi.org/10.1002/wcms.1327
  3. Neese, F.; Wennmohs, F.; Becker, U.; Riplinger, C.
     The ORCA quantum chemistry program package
     J. Chem. Phys. 2020 152(22), 224108
     doi.org/10.1063/5.0004608
  4. Neese, F.
     Software update: The ORCA program system—Version 5.0
     WIRES Comput. Molec. Sci. 2022 12(1), e1606
     doi.org/10.1002/wcms.1606

List of optional additional citations

  1. Neese, F.
     Approximate second-order SCF convergence for spin unrestricted wavefunctions
     Chem. Phys. Lett. 2000 325(1-3), 93-98
     doi.org/10.1016/s0009-2614(00)00662-x

Timings for individual modules:

Sum of individual times          ...      540.657 sec (=   9.011 min)
Startup calculation              ...       58.220 sec (=   0.970 min)  10.8 %
SCF iterations                   ...      395.644 sec (=   6.594 min)  73.2 %
Property calculations            ...        0.655 sec (=   0.011 min)   0.1 %
SCF Gradient evaluation          ...       85.854 sec (=   1.431 min)  15.9 %
Geometry relaxation              ...        0.283 sec (=   0.005 min)   0.1 %
                             ****ORCA TERMINATED NORMALLY****
TOTAL RUN TIME: 0 days 0 hours 9 minutes 29 seconds 227 msec
