
                                 *****************
                                 * O   R   C   A *
                                 *****************

                                            #,                                       
                                            ###                                      
                                            ####                                     
                                            #####                                    
                                            ######                                   
                                           ########,                                 
                                     ,,################,,,,,                         
                               ,,#################################,,                 
                          ,,##########################################,,             
                       ,#########################################, ''#####,          
                    ,#############################################,,   '####,        
                  ,##################################################,,,,####,       
                ,###########''''           ''''###############################       
              ,#####''   ,,,,##########,,,,          '''####'''          '####       
            ,##' ,,,,###########################,,,                        '##       
           ' ,,###''''                  '''############,,,                           
         ,,##''                                '''############,,,,        ,,,,,,###''
      ,#''                                            '''#######################'''  
     '                                                          ''''####''''         
             ,#######,   #######,   ,#######,      ##                                
            ,#'     '#,  ##    ##  ,#'     '#,    #''#        ,####,    ,#,          
            ##       ##  ##   ,#'  ##            #'  '#       #'       ,# #          
            ##       ##  #######   ##           ,######,      #####,      #          
            '#,     ,#'  ##    ##  '#,     ,#' ,#      #,     #,   #      #          
             '#######'   ##     ##  '#######'  #'      '#     '####' #    #          



                #########################################################
                #                        -***-                          #
                #          Department of theory and spectroscopy        #
                #                                                       #
                #                      Frank Neese                      #
                #                                                       #
                #     Directorship, Architecture, Infrastructure        #
                #                    SHARK, DRIVERS                     #
                #        Core code/Algorithms in most modules           #
                #                                                       #
                #        Max Planck Institute fuer Kohlenforschung      #
                #                Kaiser Wilhelm Platz 1                 #
                #                 D-45470 Muelheim/Ruhr                 #
                #                      Germany                          #
                #                                                       #
                #                  All rights reserved                  #
                #                        -***-                          #
                #########################################################


                         Program Version 6.1.1  -  RELEASE   -
                                (GIT: $487d211c$)
                          ($2025-11-21 10:33:24 +0100$)
                                                                         
                                  - NO-DMRG VERSION -                    
                                                                         


 With contributions from (in alphabetic order):
[Max-Planck-Institut fuer Kohlenforschung]                               
  Daniel Aravena         : Magnetic Suceptibility                        
  Michael Atanasov       : Ab Initio Ligand Field Theory (pilot matlab implementation)
  Alexander A. Auer      : GIAO ZORA, VPT2 properties, NMR spectrum      
  Ute Becker             : All parallelization in ORCA, NUMFREQ, NUMCALC 
  Giovanni Bistoni       : ED, misc. LED, open-shell LED, HFLD           
  Dmytro Bykov           : pre 5.0 version of the SCF Hessian            
  Marcos Casanova-Páez   : Triplet and SCS-CIS(D). UHF-(DLPNO)-IP/EA/STEOM-CCSD. UHF-CVS-IP/STEOM-CCSD   
  Vijay G. Chilkuri      : MRCI spin determinant printing, contributions to CSF-ICE 
  Pauline Colinet        : FMM embedding                                 
  Dipayan Datta          : RHF DLPNO-CCSD density                        
  Achintya Kumar Dutta   : EOM-CC, STEOM-CC                              
  Nicolas Foglia         : Exact transition moments, OPA infrastructure, MCD improvements    
  Dmitry Ganyushin       : Spin-Orbit,Spin-Spin,Magnetic field MRCI      
  Miquel Garcia-Rates    : C-PCM and meta-GGA Hessian, CCSD/C-PCM, Gaussian charge scheme 
  Tiago L. C. Gouveia    : GS-ROHF, GS-ROCIS                             
  Yang Guo               : DLPNO-NEVPT2, F12-NEVPT2, CIM, IAO-localization        
  Andreas Hansen         : Spin unrestricted coupled pair/coupled cluster methods 
  Ingolf Harden          : AUTO-CI MPn and infrastructure                
  Benjamin Helmich-Paris : MC-RPA, TRAH-(SCF,CASSCF), AVAS, COSX integrals, SCF dyn. polar., MC-PDFT, srDFT 
  Lee Huntington         : MR-EOM, pCC                                   
  Robert Izsak           : Overlap fitted RIJCOSX, COSX-SCS-MP3, EOM     
  Riya Kayal             : Wick's Theorem for AUTO-CI, AUTO-CI UHF-CCSDT 
  Emily Kempfer          : AUTO-CI RHF CISDT and CCSDT, approximate NEVPT4
  Christian Kollmar      : KDIIS, OOCD, Brueckner-CCSD(T), CCSD density, CASPT2, CASPT2-K, improved NEVPT2 
  Axel Koslowski         : Symmetry handling                             
  Simone Kossmann        : meta-GGA functionals, TD-DFT gradient, OOMP2, (MP2 Hessian; deprecated post 5.0) 
  Lucas Lang             : DCDCAS, Hyperfine gauge corrections, ICE-SOC+SSC
  Marvin Lechner         : AUTO-CI (C++ implementation), FIC-MRCC        
  Spencer Leger          : CASSCF response                               
  Dagmar Lenk            : GEPOL surface, SMD, ORCA-2-JSON               
  Dimitrios Liakos       : Extrapolation schemes; Compound Job, Property file
  Dimitrios Manganas     : Further ROCIS development; embedding schemes. LFT, Crystal Embedding 
  Dimitrios Pantazis     : SARC Basis sets                               
  Anastasios Papadopoulos: AUTO-CI, single reference methods and gradients 
  Taras Petrenko         : pre 6.0 DFT Hessian and TD-DFT gradient,  ECA, NRVS 
  Petra Pikulova         : Analytic Raman intensities                    
  Peter Pinski           : DLPNO-MP2, DLPNO-MP2 Gradient                 
  Shashank Vittal Rao    : ES-AILFT, MagRelax                            
  Christoph Reimann      : Effective Core Potentials                     
  Marius Retegan         : Local ZFS, SOC                                
  Christoph Riplinger    : Optimizer, TS searches, QM/MM, DLPNO-CCSD(T), (RO)-DLPNO pert. Triples 
  Michael Roemelt        : Original ROCIS implementation, recursive CI coupling coefficients
  Masaaki Saitow         : Open-shell DLPNO-CCSD energy and density      
  Barbara Sandhoefer     : DKH picture change effects                    
  Yorick L. A. Schmerwitz: GMF and freeze-and-release deltaSCF, NEB S-IDPP initial path                    
  Kantharuban Sivalingam : CASSCF convergence/infrastructure, NEVPT2, NEVPT3, NEVPT4(SD), FIC-MRCI and CEPA variants
  Bernardo de Souza      : ESD, SOC TD-DFT                               
  Georgi L. Stoychev     : AutoAux, RI-MP2 NMR, DLPNO-MP2 response, X2C  
  Van Anh Tran           : RI-MP2 g-tensors                              
  Willem Van den Heuvel  : Paramagnetic NMR                              
  Zikuan Wang            : NOTCH, Electric field optimization            
  Frank Wennmohs         : Technical directorship and infrastructure     
  Hang Xu                : AUTO-CI-Response properties                   
                                                                         
[FACCTs GmbH]                                                            
  Markus Bursch, Nicolas Foglia, Miquel Garcia-Rates, Ingolf Harden, Hagen Neugebauer, Anastasios Papadopoulos, 
  Christoph Riplinger, Bernardo de Souza, Georgi L. Stoychev                                                    
                                                                 
  APM, various basis sets, CI-OPT, improved COSX, DLPNO-Multilevel,           
  DOCKER, DRACO, updates on ESD, Fragmentator, GOAT, IRC, LR-CPCM, L-BFGS, MBIS, meta-GGA TD-DFT gradient, ML-optimized integration grids, 
  MM, NACMEs, nearIR, NEB, NEB-TS, NL-DFT gradient (VV10), 2- and 3-layer-ONIOM, interface openCOSMO-RS, QMMM,   
  Crystal-QMMM, RESP, rigid body optimization, SF, symmetry and pop. for TD-DFT, various functionals, SOLVATOR                                   
                                                                         
[Other institutions]                                                     
  V. Asgeirsson          : NEB                                           
  Christoph Bannwarth    : sTDA-DFT, sTD-DFT, PBEh-3c, B97-3c, D3        
  Giovanni Bistoni       : ETS/NOCV, ADLD/ADEX, COVALED                  
  Martin Brehm           : Molecular dynamics                            
  Ronald Cardenas        : ETS/NOCV                                      
  Martina Colucci        : COVALED                                       
  Sebastian Ehlert       : rSCAN, r2SCAN, r2SCAN-3c, D4, dhf basis sets  
  Marvin Friede          : D4 for Fr, Ra, Ac-Lr                          
  Lars Goerigk           : TD-DFT with DH, B97 family of functionals     
  Stefan Grimme          : VdW corrections, initial TS optimization, DFT functionals, gCP, sTDA/sTD-DF 
  Waldemar Hujo          : DFT-NL                                        
  H. Jonsson             : NEB                                           
  Holger Kruse           : gCP                                           
  Marcel Mueller         : wB97X-3c, vDZP basis set                      
  Hagen Neugebauer       : wr2SCAN, Native XTB                           
  Gianluca Regni         : ADLD/ADEX                                     
  Tobias Risthaus        : pre 6.0 range-separated hybrid DFT and stability analysis
  Lukas Wittmann         : regularized MP2, r2SCAN double-hybrids, wr2SCAN        
                                                                         
We gratefully acknowledge several colleagues who have allowed us to      
interface, adapt or use parts of their codes:                            
  Ed Valeev, F. Pavosevic, A. Kumar             : LibInt (2-el integral package), F12 methods 
  Garnet Chan, S. Sharma, J. Yang, R. Olivares  : DMRG                   
  Ulf Ekstrom                                   : XCFun DFT Library      
  Mihaly Kallay                                 : mrcc  (arbitrary order and MRCC methods)
  Frank Weinhold                                : gennbo (NPA and NBO analysis)           
  Simon Mueller                                 : openCOSMO-RS                            
  Christopher J. Cramer and Donald G. Truhlar   : smd solvation model                     
  S Lehtola, MJT Oliveira, MAL Marques          : LibXC Library                           
  Liviu Ungur et al                             : ANISO software                          


 Your calculation uses the libint2 library for the computation of 2-el integrals
 For citations please refer to: http://libint.valeyev.net

 Your ORCA version has been built with support for libXC version: 7.0.0
 For citations please refer to: https://libxc.gitlab.io

 This ORCA versions uses:
   CBLAS   interface :  Fast vector & matrix operations
   LAPACKE interface :  Fast linear algebra routines
   SCALAPACK package :  Parallel linear algebra routines
   Shared memory     :  Shared parallel matrices
   BLAS/LAPACK       :  OpenBLAS 0.3.29  USE64BITINT DYNAMIC_ARCH NO_AFFINITY Zen SINGLE_THREADED
        Core in use  :  Zen
   Copyright (c) 2011-2014, The OpenBLAS Project


  ***********************************
  * Starting time: Thu Apr 23 19:35:11 2026
  * Host name:     vmi3233575
  * Process ID:    1437312
  * Working dir.:  /root/b12_scan/jobs/quasi_planar_nn1.80
  ***********************************

NOTE: MaxCore=2500 MB was set to SCF,MP2,MDCI,CIPSI,MRCI,RASCI and CIS
      => If you want to overwrite this, your respective input block should be placed after the MaxCore statement
Your calculation utilizes the atom-pairwise dispersion correction
with the Becke-Johnson damping scheme (D3BJ)


================================================================================

----- Orbital basis set information -----
Your calculation utilizes the basis: def2-SVP
   F. Weigend and R. Ahlrichs, Phys. Chem. Chem. Phys. 7, 3297 (2005).

----- AuxJ basis set information -----
Your calculation utilizes the auxiliary basis: def2/J
   H-Rn: F. Weigend, Phys. Chem. Chem. Phys. 8, 1057 (2006).
   Fr-Lr: K. Eichkorn, F. Weigend, O. Treutler, R. Ahlrichs; Theor. Chem. Acc. 97, 119 (1997).

================================================================================
                                        WARNINGS
                       Please study these warnings very carefully!
================================================================================


WARNING: Geometry Optimization
  ===> : Switching off AutoStart
         For restart on a previous wavefunction, please use MOREAD

================================================================================
                                       INPUT FILE
================================================================================
NAME = quasi_planar_nn1.80.inp
|  1> ! BP86 def2-SVP def2/J RI Opt TightSCF D3BJ
|  2> ! SlowConv
|  3> 
|  4> %pal nprocs 8 end
|  5> %maxcore 2500
|  6> 
|  7> %geom
|  8>   MaxIter 300
|  9> end
| 10> 
| 11> * xyz 0 1
| 12> B      1.03923048      0.00000000      0.28342650
| 13> B     -0.51961524      0.90000000      0.28342650
| 14> B     -0.51961524     -0.90000000      0.28342650
| 15> B      3.29012301      0.33011341     -0.09447550
| 16> B      2.30818764      2.36773185     -0.09447550
| 17> B      0.24622562      3.29746224     -0.09447550
| 18> B     -1.93094811      2.68427340     -0.09447550
| 19> B     -3.20460975      0.81508321     -0.09447550
| 20> B     -2.97879888     -1.43549348     -0.09447550
| 21> B     -1.35917490     -3.01438682     -0.09447550
| 22> B      0.89642211     -3.18281506     -0.09447550
| 23> B      2.73257326     -1.86196876     -0.09447550
| 24> *
| 25> 
| 26>                          ****END OF INPUT****
================================================================================

                       *****************************
                       * Geometry Optimization Run *
                       *****************************

Geometry optimization settings:
Update method            Update   .... BFGS
Choice of coordinates    CoordSys .... (2022) Redundant Internals
Initial Hessian          InHess   .... Almloef's Model
Max. no of cycles        MaxIter  .... 300

Convergence Tolerances:
Energy Change            TolE     ....  5.0000e-06 Eh
Max. Gradient            TolMAXG  ....  3.0000e-04 Eh/bohr
RMS Gradient             TolRMSG  ....  1.0000e-04 Eh/bohr
Max. Displacement        TolMAXD  ....  4.0000e-03 bohr
RMS Displacement         TolRMSD  ....  2.0000e-03 bohr
Strict Convergence                .... False

------------------------------------------------------------------------------
                        ORCA OPTIMIZATION COORDINATE SETUP
------------------------------------------------------------------------------

The optimization will be done in redundant internal coordinates (2022)
Making redundant internal coordinates   ...  (2022 redundants) done
Evaluating the initial hessian          ...  (Almloef) done
Evaluating the coordinates              ...  done
Calculating the B-matrix                .... done
Calculating the G-matrix                .... done
The number of degrees of freedom        ....  186

    -----------------------------------------------------------------
                    Redundant Internal Coordinates


    -----------------------------------------------------------------
         Definition                    Initial Value    Approx d2E/dq
    -----------------------------------------------------------------
      1. B(B   1,B   0)                  1.8000         0.185885   
      2. B(B   2,B   1)                  1.8000         0.185885   
      3. B(B   2,B   0)                  1.8000         0.185885   
      4. B(B   3,B   0)                  2.3061         0.028955   
      5. B(B   4,B   0)                  2.7128         0.010000   
      6. B(B   4,B   3)                  2.2619         0.034068   
      7. B(B   5,B   1)                  2.5450         0.012039   
      8. B(B   5,B   4)                  2.2619         0.034068   
      9. B(B   6,B   5)                  2.2619         0.034068   
     10. B(B   6,B   1)                  2.3061         0.028955   
     11. B(B   7,B   1)                  2.7128         0.010000   
     12. B(B   7,B   6)                  2.2619         0.034068   
     13. B(B   8,B   7)                  2.2619         0.034068   
     14. B(B   8,B   2)                  2.5450         0.012039   
     15. B(B   9,B   2)                  2.3061         0.028955   
     16. B(B   9,B   8)                  2.2619         0.034068   
     17. B(B  10,B   9)                  2.2619         0.034068   
     18. B(B  10,B   2)                  2.7128         0.010000   
     19. B(B  11,B   3)                  2.2619         0.034068   
     20. B(B  11,B  10)                  2.2619         0.034068   
     21. B(B  11,B   0)                  2.5450         0.012039   
     22. A(B   1,B   0,B   4)           88.2062         0.186712   
     23. A(B   4,B   0,B  11)          107.8567         0.141591   
     24. A(B   1,B   0,B   2)           60.0000         0.297719   
     25. A(B   3,B   0,B  11)           55.3182         0.162749   
     26. A(B   1,B   0,B  11)          160.3935         0.201338   
     27. A(B   1,B   0,B   3)          140.6877         0.226022   
     28. A(B   2,B   0,B   4)          147.2990         0.186712   
     29. A(B   2,B   0,B   3)          156.4697         0.226022   
     30. A(B   2,B   0,B  11)          102.1463         0.201338   
     31. A(B   3,B   0,B   4)           52.8196         0.153147   
     32. A(B   0,B   1,B   7)          147.2990         0.186712   
     33. A(B   0,B   1,B   2)           60.0000         0.297719   
     34. A(B   2,B   1,B   6)          140.6877         0.226022   
     35. A(B   5,B   1,B   7)          107.8567         0.141591   
     36. A(B   5,B   1,B   6)           55.3182         0.162749   
     37. A(B   2,B   1,B   5)          160.3935         0.201338   
     38. A(B   0,B   1,B   5)          102.1463         0.201338   
     39. A(B   6,B   1,B   7)           52.8196         0.153147   
     40. A(B   0,B   1,B   6)          156.4697         0.226022   
     41. A(B   2,B   1,B   7)           88.2062         0.186712   
     42. A(B   1,B   2,B   9)          156.4697         0.226022   
     43. A(B   0,B   2,B   9)          140.6877         0.226022   
     44. A(B   0,B   2,B   1)           60.0000         0.297719   
     45. A(B   1,B   2,B   8)          102.1463         0.201338   
     46. A(B   1,B   2,B  10)          147.2990         0.186712   
     47. A(B   0,B   2,B   8)          160.3935         0.201338   
     48. A(B   8,B   2,B   9)           55.3182         0.162749   
     49. A(B   0,B   2,B  10)           88.2062         0.186712   
     50. A(B   9,B   2,B  10)           52.8196         0.153147   
     51. A(B   8,B   2,B  10)          107.8567         0.141591   
     52. A(B   0,B   3,B  11)           67.7084         0.182326   
     53. A(B   4,B   3,B  11)          140.0000         0.185825   
     54. A(B   0,B   3,B   4)           72.8562         0.182326   
     55. A(B   0,B   4,B   3)           54.3242         0.155552   
     56. A(B   3,B   4,B   5)          140.0000         0.185825   
     57. A(B   0,B   4,B   5)           86.1201         0.155552   
     58. A(B   1,B   5,B   4)           83.5180         0.165514   
     59. A(B   4,B   5,B   6)          140.0000         0.185825   
     60. A(B   1,B   5,B   6)           56.9735         0.165514   
     61. A(B   1,B   6,B   7)           72.8562         0.182326   
     62. A(B   5,B   6,B   7)          140.0000         0.185825   
     63. A(B   1,B   6,B   5)           67.7084         0.182326   
     64. A(B   1,B   7,B   8)           86.1201         0.155552   
     65. A(B   6,B   7,B   8)          140.0000         0.185825   
     66. A(B   1,B   7,B   6)           54.3242         0.155552   
     67. A(B   2,B   8,B   7)           83.5180         0.165514   
     68. A(B   2,B   8,B   9)           56.9735         0.165514   
     69. A(B   7,B   8,B   9)          140.0000         0.185825   
     70. A(B   2,B   9,B   8)           67.7084         0.182326   
     71. A(B   2,B   9,B  10)           72.8562         0.182326   
     72. A(B   8,B   9,B  10)          140.0000         0.185825   
     73. A(B   2,B  10,B   9)           54.3242         0.155552   
     74. A(B   9,B  10,B  11)          140.0000         0.185825   
     75. A(B   2,B  10,B  11)           86.1201         0.155552   
     76. A(B   0,B  11,B  10)           83.5180         0.165514   
     77. A(B   3,B  11,B  10)          140.0000         0.185825   
     78. A(B   0,B  11,B   3)           56.9735         0.165514   
     79. D(B   6,B   1,B   0,B   3)      9.2434         0.010000   
     80. D(B   2,B   1,B   0,B   4)    171.9885         0.010000   
     81. D(B   7,B   1,B   0,B   2)    -14.9424         0.010000   
     82. D(B   2,B   1,B   0,B  11)     26.2639         0.010000   
     83. D(B   6,B   1,B   0,B   2)   -155.7666         0.010000   
     84. D(B   6,B   1,B   0,B   4)     16.2219         0.010000   
     85. D(B   6,B   1,B   0,B  11)   -129.5027         0.010000   
     86. D(B   2,B   1,B   0,B   3)    165.0100         0.010000   
     87. D(B   8,B   2,B   0,B  11)   -144.9998         0.010000   
     88. D(B   8,B   2,B   1,B   6)     -6.2537         0.010000   
     89. D(B   8,B   2,B   0,B   1)     26.2639         0.010000   
     90. D(B   8,B   2,B   0,B   4)     11.3215         0.010000   
     91. D(B   8,B   2,B   1,B   5)   -144.9998         0.010000   
     92. D(B   1,B   2,B   0,B   3)   -155.7666         0.010000   
     93. D(B   8,B   2,B   0,B   3)   -129.5027         0.010000   
     94. D(B   0,B   2,B   1,B   5)     26.2639         0.010000   
     95. D(B   0,B   2,B   1,B   7)    171.9885         0.010000   
     96. D(B   8,B   2,B   1,B   7)      0.7248         0.010000   
     97. D(B   8,B   2,B   1,B   0)   -171.2637         0.010000   
     98. D(B  10,B   2,B   1,B   0)    -14.9424         0.010000   
     99. D(B   1,B   2,B   0,B  11)   -171.2637         0.010000   
    100. D(B   1,B   2,B   0,B   4)    -14.9424         0.010000   
    101. D(B   0,B   2,B   1,B   6)    165.0100         0.010000   
    102. D(B  10,B   2,B   0,B   1)    171.9885         0.010000   
    103. D(B  11,B   3,B   0,B   4)   -173.1579         0.010000   
    104. D(B  11,B   3,B   0,B   1)   -164.3908         0.010000   
    105. D(B   4,B   3,B   0,B   2)    154.6372         0.010000   
    106. D(B   4,B   3,B   0,B   1)      8.7671         0.010000   
    107. D(B   4,B   3,B   0,B  11)    173.1579         0.010000   
    108. D(B  11,B   3,B   0,B   2)    -18.5207         0.010000   
    109. D(B   5,B   4,B   0,B   1)     -0.7991         0.010000   
    110. D(B   0,B   4,B   3,B  11)      9.8743         0.010000   
    111. D(B   5,B   4,B   3,B  11)      0.0000         0.010000   
    112. D(B   3,B   4,B   0,B   2)   -161.5463         0.010000   
    113. D(B   5,B   4,B   3,B   0)     -9.8743         0.010000   
    114. D(B   3,B   4,B   0,B   1)   -174.4559         0.010000   
    115. D(B   5,B   4,B   0,B  11)    167.7493         0.010000   
    116. D(B   5,B   4,B   0,B   3)    173.6568         0.010000   
    117. D(B   5,B   4,B   0,B   2)     12.1105         0.010000   
    118. D(B   1,B   5,B   4,B   3)      8.5946         0.010000   
    119. D(B   1,B   5,B   4,B   0)      0.5685         0.010000   
    120. D(B   6,B   5,B   4,B   0)     -8.0261         0.010000   
    121. D(B   4,B   5,B   1,B   6)   -173.4211         0.010000   
    122. D(B   4,B   5,B   1,B   2)    -23.9532         0.010000   
    123. D(B   6,B   5,B   4,B   3)      0.0000         0.010000   
    124. D(B   6,B   5,B   1,B   7)      5.7231         0.010000   
    125. D(B   6,B   5,B   1,B   2)    149.4678         0.010000   
    126. D(B   6,B   5,B   1,B   0)    172.5466         0.010000   
    127. D(B   4,B   5,B   1,B   0)     -0.8744         0.010000   
    128. D(B   7,B   6,B   5,B   4)      0.0000         0.010000   
    129. D(B   7,B   6,B   5,B   1)    -10.2011         0.010000   
    130. D(B   1,B   6,B   5,B   4)     10.2011         0.010000   
    131. D(B   5,B   6,B   1,B   7)   -173.1579         0.010000   
    132. D(B   5,B   6,B   1,B   2)   -164.3908         0.010000   
    133. D(B   7,B   6,B   1,B   5)    173.1579         0.010000   
    134. D(B   7,B   6,B   1,B   2)      8.7671         0.010000   
    135. D(B   7,B   6,B   1,B   0)    154.6372         0.010000   
    136. D(B   5,B   6,B   1,B   0)    -18.5207         0.010000   
    137. D(B   8,B   7,B   1,B   2)     -0.7991         0.010000   
    138. D(B   8,B   7,B   1,B   0)     12.1105         0.010000   
    139. D(B   6,B   7,B   1,B   5)     -5.9076         0.010000   
    140. D(B   6,B   7,B   1,B   2)   -174.4559         0.010000   
    141. D(B   6,B   7,B   1,B   0)   -161.5463         0.010000   
    142. D(B   8,B   7,B   6,B   5)      0.0000         0.010000   
    143. D(B   8,B   7,B   6,B   1)     -9.8743         0.010000   
    144. D(B   1,B   7,B   6,B   5)      9.8743         0.010000   
    145. D(B   8,B   7,B   1,B   6)    173.6568         0.010000   
    146. D(B   9,B   8,B   7,B   1)     -8.0261         0.010000   
    147. D(B   9,B   8,B   7,B   6)      0.0000         0.010000   
    148. D(B   2,B   8,B   7,B   1)      0.5685         0.010000   
    149. D(B   2,B   8,B   7,B   6)      8.5946         0.010000   
    150. D(B   9,B   8,B   2,B   1)    172.5466         0.010000   
    151. D(B   9,B   8,B   2,B   0)    149.4678         0.010000   
    152. D(B   7,B   8,B   2,B   9)   -173.4211         0.010000   
    153. D(B   7,B   8,B   2,B  10)   -167.6979         0.010000   
    154. D(B   7,B   8,B   2,B   1)     -0.8744         0.010000   
    155. D(B   7,B   8,B   2,B   0)    -23.9532         0.010000   
    156. D(B   2,B   9,B   8,B   7)     10.2011         0.010000   
    157. D(B  10,B   9,B   8,B   2)    -10.2011         0.010000   
    158. D(B  10,B   9,B   8,B   7)      0.0000         0.010000   
    159. D(B   8,B   9,B   2,B  10)   -173.1579         0.010000   
    160. D(B   8,B   9,B   2,B   1)    -18.5207         0.010000   
    161. D(B   8,B   9,B   2,B   0)   -164.3908         0.010000   
    162. D(B  10,B   9,B   2,B   8)    173.1579         0.010000   
    163. D(B  10,B   9,B   2,B   1)    154.6372         0.010000   
    164. D(B  10,B   9,B   2,B   0)      8.7671         0.010000   
    165. D(B  11,B  10,B   9,B   2)     -9.8743         0.010000   
    166. D(B  11,B  10,B   9,B   8)      0.0000         0.010000   
    167. D(B   9,B  10,B   2,B   1)   -161.5463         0.010000   
    168. D(B   9,B  10,B   2,B   0)   -174.4559         0.010000   
    169. D(B  11,B  10,B   2,B   9)    173.6568         0.010000   
    170. D(B  11,B  10,B   2,B   8)    167.7493         0.010000   
    171. D(B  11,B  10,B   2,B   1)     12.1105         0.010000   
    172. D(B   2,B  10,B   9,B   8)      9.8743         0.010000   
    173. D(B  11,B  10,B   2,B   0)     -0.7991         0.010000   
    174. D(B   0,B  11,B  10,B   9)      8.5946         0.010000   
    175. D(B   3,B  11,B  10,B   9)      0.0000         0.010000   
    176. D(B   3,B  11,B  10,B   2)     -8.0261         0.010000   
    177. D(B  10,B  11,B   3,B   0)     10.2011         0.010000   
    178. D(B  10,B  11,B   3,B   4)      0.0000         0.010000   
    179. D(B   0,B  11,B   3,B   4)    -10.2011         0.010000   
    180. D(B  10,B  11,B   0,B   4)   -167.6979         0.010000   
    181. D(B  10,B  11,B   0,B   2)     -0.8744         0.010000   
    182. D(B  10,B  11,B   0,B   1)    -23.9532         0.010000   
    183. D(B   3,B  11,B   0,B   4)      5.7231         0.010000   
    184. D(B   0,B  11,B  10,B   2)      0.5685         0.010000   
    185. D(B   3,B  11,B   0,B   2)    172.5466         0.010000   
    186. D(B   3,B  11,B   0,B   1)    149.4678         0.010000   
    -----------------------------------------------------------------

Number of atoms                         .... 12
Number of degrees of freedom            .... 186


         *************************************************************
         *                GEOMETRY OPTIMIZATION CYCLE   1            *
         *************************************************************
---------------------------------
CARTESIAN COORDINATES (ANGSTROEM)
---------------------------------
  B      1.039230    0.000000    0.283427
  B     -0.519615    0.900000    0.283427
  B     -0.519615   -0.900000    0.283427
  B      3.290123    0.330113   -0.094475
  B      2.308188    2.367732   -0.094475
  B      0.246226    3.297462   -0.094475
  B     -1.930948    2.684273   -0.094475
  B     -3.204610    0.815083   -0.094475
  B     -2.978799   -1.435493   -0.094475
  B     -1.359175   -3.014387   -0.094475
  B      0.896422   -3.182815   -0.094475
  B      2.732573   -1.861969   -0.094475

----------------------------
CARTESIAN COORDINATES (A.U.)
----------------------------
  NO LB      ZA    FRAG     MASS         X           Y           Z
   0 B     5.0000    0    10.810    1.963861    0.000000    0.535598
   1 B     5.0000    0    10.810   -0.981930    1.700754    0.535598
   2 B     5.0000    0    10.810   -0.981930   -1.700754    0.535598
   3 B     5.0000    0    10.810    6.217431    0.623824   -0.178533
   4 B     5.0000    0    10.810    4.361843    4.474365   -0.178533
   5 B     5.0000    0    10.810    0.465299    6.231301   -0.178533
   6 B     5.0000    0    10.810   -3.648963    5.072542   -0.178533
   7 B     5.0000    0    10.810   -6.055835    1.540284   -0.178533
   8 B     5.0000    0    10.810   -5.629114   -2.712690   -0.178533
   9 B     5.0000    0    10.810   -2.568468   -5.696366   -0.178533
  10 B     5.0000    0    10.810    1.693992   -6.014649   -0.178533
  11 B     5.0000    0    10.810    5.163815   -3.518611   -0.178533

--------------------------------
INTERNAL COORDINATES (ANGSTROEM)
--------------------------------
 B      0   0   0     0.000000000000     0.00000000     0.00000000
 B      1   0   0     1.799999994101     0.00000000     0.00000000
 B      1   2   0     1.799999994101    60.00000022     0.00000000
 B      1   2   3     2.306144394151   140.68769034   165.00998125
 B      4   1   2     2.261876649573    72.85622666     8.76710030
 B      5   4   1     2.261876647833   139.99999991   350.12571577
 B      6   5   4     2.261876655369   140.00000003     0.00000000
 B      7   6   5     2.261876641110   139.99999998     0.00000000
 B      8   7   6     2.261876651496   140.00000009     0.00000000
 B      9   8   7     2.261876657930   139.99999992     0.00000000
 B     10   9   8     2.261876641983   139.99999996     0.00000000
 B      4   1   2     2.261876646450    67.70836127   195.60917324

---------------------------
INTERNAL COORDINATES (A.U.)
---------------------------
 B      0   0   0     0.000000000000     0.00000000     0.00000000
 B      1   0   0     3.401507029910     0.00000000     0.00000000
 B      1   2   0     3.401507029910    60.00000022     0.00000000
 B      1   2   3     4.357981330224   140.68769034   165.00998125
 B      4   1   2     4.274327416405    72.85622666     8.76710030
 B      5   4   1     4.274327413116   139.99999991   350.12571577
 B      6   5   4     4.274327427357   140.00000003     0.00000000
 B      7   6   5     4.274327400412   139.99999998     0.00000000
 B      8   7   6     4.274327420038   140.00000009     0.00000000
 B      9   8   7     4.274327432196   139.99999992     0.00000000
 B     10   9   8     4.274327402062   139.99999996     0.00000000
 B      4   1   2     4.274327410503    67.70836127   195.60917324

---------------------
BASIS SET INFORMATION
---------------------
There are 1 groups of distinct atoms

 Group   1 Type B   : 7s4p1d contracted to 3s2p1d pattern {511/31/1}

Atom   0B    basis set group =>   1
Atom   1B    basis set group =>   1
Atom   2B    basis set group =>   1
Atom   3B    basis set group =>   1
Atom   4B    basis set group =>   1
Atom   5B    basis set group =>   1
Atom   6B    basis set group =>   1
Atom   7B    basis set group =>   1
Atom   8B    basis set group =>   1
Atom   9B    basis set group =>   1
Atom  10B    basis set group =>   1
Atom  11B    basis set group =>   1
---------------------------------
AUXILIARY/J BASIS SET INFORMATION
---------------------------------
There are 1 groups of distinct atoms

 Group   1 Type B   : 12s5p4d2f1g contracted to 6s4p3d1f1g pattern {711111/2111/211/2/1}

Atom   0B    basis set group =>   1
Atom   1B    basis set group =>   1
Atom   2B    basis set group =>   1
Atom   3B    basis set group =>   1
Atom   4B    basis set group =>   1
Atom   5B    basis set group =>   1
Atom   6B    basis set group =>   1
Atom   7B    basis set group =>   1
Atom   8B    basis set group =>   1
Atom   9B    basis set group =>   1
Atom  10B    basis set group =>   1
Atom  11B    basis set group =>   1


           ************************************************************
           *        Program running with 8 parallel MPI-processes     *
           *              working on a common directory               *
           ************************************************************
------------------------------------------------------------------------------
                             ORCA STARTUP CALCULATIONS
                           -- RI-GTO INTEGRALS CHOSEN --
------------------------------------------------------------------------------
------------------------------------------------------------------------------
                   ___                                                        
                  /   \      - P O W E R E D   B Y -                         
                 /     \                                                     
                 |  |  |   _    _      __       _____    __    __             
                 |  |  |  | |  | |    /  \     |  _  \  |  |  /  |          
                  \  \/   | |  | |   /    \    | | | |  |  | /  /          
                 / \  \   | |__| |  /  /\  \   | |_| |  |  |/  /          
                |  |  |   |  __  | /  /__\  \  |    /   |      \           
                |  |  |   | |  | | |   __   |  |    \   |  |\   \          
                \     /   | |  | | |  |  |  |  | |\  \  |  | \   \       
                 \___/    |_|  |_| |__|  |__|  |_| \__\ |__|  \__/        
                                                                              
                      - O R C A' S   B I G   F R I E N D -                    
                                      &                                       
                       - I N T E G R A L  F E E D E R -                       
                                                                              
 v1 FN, 2020, v2 2021, v3 2022-2024                                           
------------------------------------------------------------------------------


----------------------
SHARK INTEGRAL PACKAGE
----------------------

Number of atoms                             ...     12
Number of basis functions                   ...    168
Number of shells                            ...     72
Maximum angular momentum                    ...      2
Integral batch strategy                     ... SHARK/LIBINT Hybrid
RI-J (if used) integral strategy            ... SPLIT-RIJ (Revised 2003 algorithm where possible)
Printlevel                                  ...      1
Contraction scheme used                     ... SEGMENTED contraction
Prescreening option                         ... SCHWARTZ
   Thresh                                   ... 2.500e-11
   Tcut                                     ... 2.500e-12
   Tpresel                                  ... 2.500e-12 
Coulomb Range Separation                    ... NOT USED
Exchange Range Separation                   ... NOT USED
Multipole approximations                    ... NOT USED
Finite Nucleus Model                        ... NOT USED
CABS basis                                  ... NOT available
Auxiliary Coulomb fitting basis             ... AVAILABLE
   # of basis functions in Aux-J            ...    588
   # of shells in Aux-J                     ...    180
   Maximum angular momentum in Aux-J        ...      4
Auxiliary J/K fitting basis                 ... NOT available
Auxiliary Correlation fitting basis         ... NOT available
Auxiliary 'external' fitting basis          ... NOT available

Checking pre-screening integrals            ... done (  0.0 sec) Dimension = 72
   => SHARK Basis and OBASIS are compatible. Storing Pre-screening
Shell pair information
Shell pair cut-off parameter TPreSel        ...   2.5e-12
Total number of shell pairs                 ...      2628
Shell pairs after pre-screening             ...      2460
Total number of primitive shell pairs       ...     10596
Primitive shell pairs kept                  ...      6732
          la=0 lb=0:    579 shell pairs
          la=1 lb=0:    828 shell pairs
          la=1 lb=1:    300 shell pairs
          la=2 lb=0:    396 shell pairs
          la=2 lb=1:    288 shell pairs
          la=2 lb=2:     69 shell pairs

Checking whether 4 symmetric matrices of dimension 168 fit in memory
:Max Core in MB      =   2500.00
 MB in use           =      6.59
 MB left             =   2493.41
 MB needed           =      0.43
 Data fit in memory  = YES
Calculating RI/J V-Matrix + Cholesky decomp.... done (  0.0 sec)
Calculating Nuclear repulsion               ... done (  0.0 sec) ENN=    251.741934254881 Eh

Diagonalization of the overlap matrix:
Smallest eigenvalue                        ... 1.198e-03
Time for diagonalization                   ...    0.004 sec
Threshold for overlap eigenvalues          ... 1.000e-07
Number of eigenvalues below threshold      ... 0
Time for construction of square roots      ...    0.003 sec
Total time needed                          ...    0.010 sec

-------------------
DFT GRID GENERATION
-------------------

General Integration Accuracy     IntAcc      ... 4.388
Radial Grid Type                 RadialGrid  ... OptM3 with GC (2021)
Angular Grid (max. ang.)         AngularGrid ... 4 (Lebedev-302)
Angular grid pruning method      GridPruning ... 4 (adaptive)
Weight generation scheme         WeightScheme... mBecke (2022)
Basis function cutoff            BFCut       ... 1.0000e-11
Integration weight cutoff        WCut        ... 1.0000e-14
Partially contracted basis set               ... off
Rotationally invariant grid construction     ... off
Angular grids for H and He will be reduced by one unit

Total number of grid points                  ...    72472
Total number of batches                      ...     1140
Average number of points per batch           ...       63
Average number of grid points per atom       ...     6039
Grids setup in   0.8 sec
Initializing property integral containers    ... done (  0.0 sec)

SHARK setup successfully completed in   0.9 seconds

Maximum memory used throughout the entire STARTUP-calculation: 19.7 MB


           ************************************************************
           *        Program running with 8 parallel MPI-processes     *
           *              working on a common directory               *
           ************************************************************
-------------------------------------------------------------------------------
                                 ORCA GUESS
                   Start orbitals & Density for SCF / CASSCF
-------------------------------------------------------------------------------

------------
SCF SETTINGS
------------
Hamiltonian:
 Density Functional     Method          .... DFT(GTOs)
 Exchange Functional    Exchange        .... B88
   X-Alpha parameter    XAlpha          ....  0.666667
   Becke's b parameter  XBeta           ....  0.004200
 Correlation Functional Correlation     .... P86
 LDA part of GGA corr.  LDAOpt          .... PW91-LDA
 Gradients option       PostSCFGGA      .... off
   NL short-range parameter             ....  4.400000
 RI-approximation to the Coulomb term is turned on
   Number of AuxJ basis functions       .... 588


General Settings:
 Integral files         IntName         .... quasi_planar_nn1.80
 Hartree-Fock type      HFTyp           .... RHF
 Total Charge           Charge          ....    0
 Multiplicity           Mult            ....    1
 Number of Electrons    NEL             ....   60
 Basis Dimension        Dim             ....  168
 Nuclear Repulsion      ENuc            ....    251.7419342549 Eh

Convergence Acceleration:
 AO-DIIS                CNVDIIS         .... on
   Start iteration      DIISMaxIt       ....     0
   Startup error        DIISStart       ....  0.200000
   # of expansion vecs  DIISMaxEq       ....     5
   Bias factor          DIISBfac        ....   1.050
   Max. coefficient     DIISMaxC        ....  10.000
 MO-DIIS                CNVKDIIS        .... off
 Trust-Rad. Augm. Hess. CNVTRAH         .... auto
   Auto Start mean grad. ratio tolernc. ....  1.125000
   Auto Start start iteration           ....    50
   Auto Start num. interpolation iter.  ....    10
   Max. Number of Micro iterations      ....    24
   Max. Number of Macro iterations      .... Maxiter - #DIIS iter
   Number of Davidson start vectors     ....     2
   Converg. threshold    (grad. norm)   ....   1.000e-05
   Grad. Scal. Fac. for Micro threshold ....   0.100
   Minimum threshold for Micro iter.    ....   1.000e-02
   NR start threshold (gradient norm)   ....   1.000e-04
   Initial trust radius                 ....   0.400
   Minimum AH scaling param. (alpha)    ....   1.000
   Maximum AH scaling param. (alpha)    .... 1000.000
   Quad. conv. algorithm                .... NR
   White noise on init. David. guess    .... on
   Maximum white noise                  ....   0.010
   Pseudo random numbers                .... off
   Inactive MOs                         .... canonical
   Orbital update algorithm             .... Taylor
   Preconditioner                       .... Diag
   Full preconditioner red. dimension   ....   250
 SOSCF                 CNVSOSCF           .... on
   Start iteration     SOSCFMaxIt         ....   150
   Startup grad/error  SOSCFStart         ....  0.001000
   Hessian update      SOSCFHessUp        .... L-BFGS
   Autom. constraints  SOSCFAutoConstrain .... off
 Level Shifting         CNVShift        .... on
   Level shift para.    LevelShift      ....    0.2500
   Turn off err/grad.   ShiftErr        ....    0.0000
 Zerner damping         CNVZerner       .... off
 Static damping         CNVDamp         .... on
   Fraction old density DampFac         ....    0.8500
   Max. Damping (<1)    DampMax         ....    0.9800
   Min. Damping (>=0)   DampMin         ....    0.0000
   Turn off err/grad.   DampErr         ....    0.0300

SCF Procedure:
 Maximum # iterations   MaxIter         ....   125
 SCF integral mode      SCFMode         .... Direct
   Integral package                     .... SHARK and LIBINT hybrid scheme
 Reset frequency        DirectResetFreq ....    20
 Integral Threshold     Thresh          ....  2.500e-11 Eh
 Primitive CutOff       TCut            ....  2.500e-12 Eh

Convergence Tolerance:
 Convergence Check Mode ConvCheckMode   .... Total+1el-Energy
 Convergence forced     ConvForced      .... 0
 Energy Change          TolE            ....  1.000e-08 Eh
 1-El. energy change                    ....  1.000e-05 Eh
 Orbital Gradient       TolG            ....  1.000e-05
 Orbital Rotation angle TolX            ....  1.000e-05
 DIIS Error             TolErr          ....  5.000e-07

------------------------------
INITIAL GUESS: MODEL POTENTIAL
------------------------------
Loading Hartree-Fock densities                     ... done
Calculating cut-offs                               ... done
Initializing the effective Hamiltonian             ... done
Setting up the integral package (SHARK)            ... done
Starting the Coulomb interaction                   ... done (   0.0 sec)
Making the grid                                    ... done (   0.1 sec)
Mapping shells                                     ... done
Starting the XC term evaluation                    ... done (   0.0 sec)
  promolecular density results
     # of electrons  =     59.999546744
     EX              =    -44.727129384
     EC              =     -1.814526302
     EX+EC           =    -46.541655687
Transforming the Hamiltonian                       ... done (   0.0 sec)
Diagonalizing the Hamiltonian                      ... done (   0.0 sec)
Back transforming the eigenvectors                 ... done (   0.0 sec)
Now organizing SCF variables                       ... done
                      ------------------
                      INITIAL GUESS DONE (   0.2 sec)
                      ------------------
             **** ENERGY FILE WAS UPDATED (quasi_planar_nn1.80.en.tmp) ****
Finished Guess after   0.7 sec
Maximum memory used throughout the entire GUESS-calculation: 9.3 MB


           ************************************************************
           *        Program running with 8 parallel MPI-processes     *
           *              working on a common directory               *
           ************************************************************

-------------------------------------------------------------------------------------------
                                      ORCA LEAN-SCF
                              memory conserving SCF solver
-------------------------------------------------------------------------------------------

----------------------------------------D-I-I-S--------------------------------------------
Iteration    Energy (Eh)           Delta-E    RMSDP     MaxDP     DIISErr   Damp  Time(sec)
-------------------------------------------------------------------------------------------
               ***  Starting incremental Fock matrix formation  ***
    1    -296.3426936090612571     0.00e+00  6.46e-03  6.34e-02  1.29e-01  0.850   0.7
Warning: op=0 Small HOMO/LUMO gap (  -0.039) - skipping pre-diagonalization
         Will do a full diagonalization
    2    -296.4883180787780930    -1.46e-01  6.91e-03  5.70e-02  7.84e-02  0.850   0.6
                               ***Turning on AO-DIIS***
    3    -296.5406431160241709    -5.23e-02  3.97e-03  2.58e-02  2.80e-02  0.850   0.3
    4    -296.5408406774516834    -1.98e-04  1.76e-02  9.47e-02  1.99e-02  0.000   0.4
    5    -296.3881235257790649     1.53e-01  6.39e-03  3.51e-02  1.54e-01  0.000   1.0
    6    -296.5521288814558147    -1.64e-01  5.14e-04  2.53e-03  8.70e-02  0.850   0.4
    7    -296.5609490964473025    -8.82e-03  7.54e-04  3.90e-03  8.22e-02  0.850   0.3
    8    -296.5735580370549087    -1.26e-02  9.81e-04  5.67e-03  7.48e-02  0.850   0.3
    9    -296.5891448757910211    -1.56e-02  1.25e-03  6.49e-03  6.43e-02  0.850   0.3
   10    -296.6036604791866012    -1.45e-02  1.19e-03  6.60e-03  5.31e-02  0.850   0.3
   11    -296.6157453165554898    -1.21e-02  1.05e-03  5.68e-03  4.20e-02  0.850   0.4
   12    -296.6244274260393468    -8.68e-03  9.02e-04  4.61e-03  3.24e-02  0.850   0.3
   13    -296.6303378071914949    -5.91e-03  7.70e-04  3.72e-03  2.46e-02  0.850   0.4
   14    -296.6342757646002610    -3.94e-03  4.37e-03  2.08e-02  1.84e-02  0.000   0.6
   15    -296.6421143682988486    -7.84e-03  6.95e-04  4.47e-03  1.30e-02  0.000   1.0
   16    -296.6433819938804390    -1.27e-03  4.18e-04  2.66e-03  8.07e-03  0.000   0.3
   17    -296.6438685424311643    -4.87e-04  2.80e-04  1.64e-03  5.11e-03  0.000   0.6
   18    -296.6440765515874318    -2.08e-04  2.00e-04  9.83e-04  3.27e-03  0.000   0.3
   19    -296.6441722959999652    -9.57e-05  1.71e-04  6.57e-04  2.07e-03  0.000   0.3
   20    -296.6442238456917266    -5.15e-05  1.43e-04  4.79e-04  1.18e-03  0.000   0.3
               *** Restarting incremental Fock matrix formation ***
                             ****Resetting DIIS****
Warning: op=0 Small HOMO/LUMO gap (  -0.004) - skipping pre-diagonalization
         Will do a full diagonalization
                              *** Initializing SOSCF ***
---------------------------------------S-O-S-C-F--------------------------------------
Iteration    Energy (Eh)           Delta-E    RMSDP     MaxDP     MaxGrad    Time(sec)
--------------------------------------------------------------------------------------
   21    -296.6442501833251981    -2.63e-05  7.63e-04  2.41e-03  6.83e-04     0.5
               *** Restarting incremental Fock matrix formation ***
   22    -296.6441993515869626     5.08e-05  1.44e-03  1.13e-02  2.55e-03     0.3
   23    -296.6433470291447065     8.52e-04  1.07e-03  8.91e-03  7.40e-03     0.3
   24    -296.6443557742422854    -1.01e-03  3.87e-04  2.69e-03  6.28e-04     0.3
   25    -296.6443801123526782    -2.43e-05  8.43e-04  3.11e-03  5.27e-04     0.3
               *** Scaled step length from 0.408349 to 0.200000 ***
   26    -296.6444536655789079    -7.36e-05  7.12e-03  2.50e-02  5.74e-04     0.3
   27    -296.6448919429512898    -4.38e-04  3.57e-03  1.46e-02  1.27e-03     0.3
   28    -296.6450321211507344    -1.40e-04  5.92e-04  3.76e-03  6.83e-04     0.3
   29    -296.6450463289842219    -1.42e-05  3.17e-04  1.52e-03  5.16e-04     0.4
   30    -296.6450599006340099    -1.36e-05  2.69e-04  9.09e-04  1.20e-04     0.4
   31    -296.6450613021565914    -1.40e-06  9.75e-05  3.86e-04  9.00e-05     0.3
   32    -296.6450631922459706    -1.89e-06  2.44e-04  8.63e-04  1.23e-04     0.2
   33    -296.6450627039984056     4.88e-07  1.66e-04  6.02e-04  2.08e-04     0.3
   34    -296.6450651418939515    -2.44e-06  3.74e-05  2.43e-04  2.82e-05     0.8
   35    -296.6450653222254914    -1.80e-07  4.13e-05  1.47e-04  3.91e-05     0.4
   36    -296.6450655145912378    -1.92e-07  4.20e-05  1.23e-04  2.30e-05     0.3
   37    -296.6450655881955072    -7.36e-08  1.44e-05  4.28e-05  9.97e-06     0.3
   38    -296.6450656098880927    -2.17e-08  1.02e-05  3.03e-05  5.66e-06     0.5
   39    -296.6450656186907509    -8.80e-09  5.93e-06  2.25e-05  4.21e-06     0.4
                 **** Energy Check signals convergence ****

               *****************************************************
               *                     SUCCESS                       *
               *           SCF CONVERGED AFTER  39 CYCLES          *
               *****************************************************

             **** ENERGY FILE WAS UPDATED (quasi_planar_nn1.80.en.tmp) ****

----------------
TOTAL SCF ENERGY
----------------

Total Energy       :       -296.64506562088354 Eh           -8072.12261 eV

Components:
Nuclear Repulsion  :        251.74193425488150 Eh            6850.24629 eV
Electronic Energy  :       -548.38699987576501 Eh          -14922.36891 eV
One Electron Energy:       -892.09335064344714 Eh          -24275.09419 eV
Two Electron Energy:        343.70635076768212 Eh            9352.72529 eV

Virial components:
Potential Energy   :       -588.36979931637507 Eh          -16010.35619 eV
Kinetic Energy     :        291.72473369549158 Eh            7938.23358 eV
Virial Ratio       :          2.01686635158789

DFT components:
N(Alpha)           :       29.999998828876 electrons
N(Beta)            :       29.999998828876 electrons
N(Total)           :       59.999997657752 electrons
E(X)               :      -45.062857518541 Eh       
E(C)               :       -1.849408201971 Eh       
E(XC)              :      -46.912265720512 Eh       

---------------
SCF CONVERGENCE
---------------

  Last Energy change         ...    8.8027e-09  Tolerance :   1.0000e-08
  Last MAX-Density change    ...    2.2528e-05  Tolerance :   1.0000e-07
  Last RMS-Density change    ...    5.9325e-06  Tolerance :   5.0000e-09
  Last DIIS Error            ...    6.8279e-04  Tolerance :   5.0000e-07
  Last Orbital Gradient      ...    4.2097e-06  Tolerance :   1.0000e-05
  Last Orbital Rotation      ...    7.6596e-05  Tolerance :   1.0000e-05


----------------
ORBITAL ENERGIES
----------------

  NO   OCC          E(Eh)            E(eV) 
   0   2.0000      -6.653515      -181.0513 
   1   2.0000      -6.653506      -181.0511 
   2   2.0000      -6.653493      -181.0507 
   3   2.0000      -6.645767      -180.8405 
   4   2.0000      -6.645765      -180.8404 
   5   2.0000      -6.645747      -180.8400 
   6   2.0000      -6.633260      -180.5002 
   7   2.0000      -6.633258      -180.5001 
   8   2.0000      -6.633232      -180.4994 
   9   2.0000      -6.599688      -179.5866 
  10   2.0000      -6.599684      -179.5865 
  11   2.0000      -6.599634      -179.5852 
  12   2.0000      -0.541486       -14.7346 
  13   2.0000      -0.455799       -12.4029 
  14   2.0000      -0.455795       -12.4028 
  15   2.0000      -0.444472       -12.0947 
  16   2.0000      -0.405309       -11.0290 
  17   2.0000      -0.405307       -11.0290 
  18   2.0000      -0.346593        -9.4313 
  19   2.0000      -0.343352        -9.3431 
  20   2.0000      -0.294998        -8.0273 
  21   2.0000      -0.294997        -8.0273 
  22   2.0000      -0.271335        -7.3834 
  23   2.0000      -0.271334        -7.3834 
  24   2.0000      -0.246647        -6.7116 
  25   2.0000      -0.241129        -6.5614 
  26   2.0000      -0.205924        -5.6035 
  27   2.0000      -0.205922        -5.6034 
  28   2.0000      -0.190208        -5.1758 
  29   2.0000      -0.190207        -5.1758 
  30   0.0000      -0.192766        -5.2454 
  31   0.0000      -0.192765        -5.2454 
  32   0.0000      -0.171746        -4.6734 
  33   0.0000      -0.152100        -4.1389 
  34   0.0000      -0.152098        -4.1388 
  35   0.0000      -0.138271        -3.7625 
  36   0.0000      -0.131893        -3.5890 
  37   0.0000      -0.130895        -3.5618 
  38   0.0000      -0.130892        -3.5618 
  39   0.0000      -0.104538        -2.8446 
  40   0.0000      -0.098719        -2.6863 
*Only the first 10 virtual orbitals were printed.

                    ********************************
                    * MULLIKEN POPULATION ANALYSIS *
                    ********************************

-----------------------
MULLIKEN ATOMIC CHARGES
-----------------------
   0 B :   -0.239547
   1 B :   -0.239543
   2 B :   -0.239534
   3 B :    0.071915
   4 B :    0.084647
   5 B :    0.082977
   6 B :    0.071909
   7 B :    0.084676
   8 B :    0.082960
   9 B :    0.071901
  10 B :    0.084639
  11 B :    0.082999
Sum of atomic charges:    0.0000000

--------------------------------
MULLIKEN REDUCED ORBITAL CHARGES
--------------------------------
  0 B s       :     3.134645  s :     3.134645
      pz      :     0.485225  p :     2.079332
      px      :     0.784775
      py      :     0.809332
      dz2     :     0.002106  d :     0.025570
      dxz     :     0.003878
      dyz     :     0.000286
      dx2y2   :     0.010676
      dxy     :     0.008624

  1 B s       :     3.134648  s :     3.134648
      pz      :     0.485232  p :     2.079325
      px      :     0.808611
      py      :     0.785481
      dz2     :     0.002106  d :     0.025570
      dxz     :     0.001170
      dyz     :     0.002995
      dx2y2   :     0.009390
      dxy     :     0.009908

  2 B s       :     3.134643  s :     3.134643
      pz      :     0.485252  p :     2.079321
      px      :     0.797736
      py      :     0.796334
      dz2     :     0.002106  d :     0.025570
      dxz     :     0.001198
      dyz     :     0.002966
      dx2y2   :     0.008882
      dxy     :     0.010416

  3 B s       :     3.667616  s :     3.667616
      pz      :     0.130759  p :     1.244936
      px      :     0.503737
      py      :     0.610440
      dz2     :     0.001918  d :     0.015533
      dxz     :     0.001311
      dyz     :     0.000130
      dx2y2   :     0.007328
      dxy     :     0.004846

  4 B s       :     3.730272  s :     3.730272
      pz      :     0.111116  p :     1.172839
      px      :     0.569901
      py      :     0.491822
      dz2     :     0.001793  d :     0.012242
      dxz     :     0.000246
      dyz     :     0.000438
      dx2y2   :     0.004437
      dxy     :     0.005328

  5 B s       :     3.710532  s :     3.710532
      pz      :     0.108563  p :     1.193510
      px      :     0.645399
      py      :     0.439548
      dz2     :     0.001915  d :     0.012981
      dxz     :     0.000220
      dyz     :     0.000592
      dx2y2   :     0.005481
      dxy     :     0.004773

  6 B s       :     3.667617  s :     3.667617
      pz      :     0.130736  p :     1.244941
      px      :     0.569978
      py      :     0.544226
      dz2     :     0.001918  d :     0.015533
      dxz     :     0.000552
      dyz     :     0.000889
      dx2y2   :     0.004707
      dxy     :     0.007467

  7 B s       :     3.730267  s :     3.730267
      pz      :     0.111026  p :     1.172814
      px      :     0.383768
      py      :     0.678020
      dz2     :     0.001793  d :     0.012242
      dxz     :     0.000520
      dyz     :     0.000165
      dx2y2   :     0.005605
      dxy     :     0.004160

  8 B s       :     3.710511  s :     3.710511
      pz      :     0.108570  p :     1.193548
      px      :     0.443795
      py      :     0.641183
      dz2     :     0.001915  d :     0.012981
      dxz     :     0.000630
      dyz     :     0.000183
      dx2y2   :     0.005831
      dxy     :     0.004423

  9 B s       :     3.667552  s :     3.667552
      pz      :     0.130828  p :     1.245015
      px      :     0.597557
      py      :     0.516629
      dz2     :     0.001917  d :     0.015532
      dxz     :     0.000299
      dyz     :     0.001143
      dx2y2   :     0.006226
      dxy     :     0.005947

 10 B s       :     3.730252  s :     3.730252
      pz      :     0.111099  p :     1.172867
      px      :     0.638973
      py      :     0.422795
      dz2     :     0.001793  d :     0.012242
      dxz     :     0.000261
      dyz     :     0.000423
      dx2y2   :     0.004605
      dxy     :     0.005159

 11 B s       :     3.710538  s :     3.710538
      pz      :     0.108501  p :     1.193481
      px      :     0.538251
      py      :     0.546729
      dz2     :     0.001915  d :     0.012982
      dxz     :     0.000369
      dyz     :     0.000444
      dx2y2   :     0.004069
      dxy     :     0.006186



                     *******************************
                     * LOEWDIN POPULATION ANALYSIS *
                     *******************************

----------------------
LOEWDIN ATOMIC CHARGES
----------------------
   0 B :   -0.114847
   1 B :   -0.114837
   2 B :   -0.114858
   3 B :   -0.026623
   4 B :    0.092036
   5 B :    0.049421
   6 B :   -0.026627
   7 B :    0.092071
   8 B :    0.049411
   9 B :   -0.026619
  10 B :    0.092024
  11 B :    0.049446

-------------------------------
LOEWDIN REDUCED ORBITAL CHARGES
-------------------------------
  0 B s       :     2.878724  s :     2.878724
      pz      :     0.483637  p :     2.173787
      px      :     0.862690
      py      :     0.827459
      dz2     :     0.007804  d :     0.062336
      dxz     :     0.006379
      dyz     :     0.000422
      dx2y2   :     0.025222
      dxy     :     0.022509

  1 B s       :     2.878725  s :     2.878725
      pz      :     0.483642  p :     2.173777
      px      :     0.837851
      py      :     0.852284
      dz2     :     0.007804  d :     0.062335
      dxz     :     0.001906
      dyz     :     0.004894
      dx2y2   :     0.022782
      dxy     :     0.024949

  2 B s       :     2.878719  s :     2.878719
      pz      :     0.483661  p :     2.173803
      px      :     0.834665
      py      :     0.855477
      dz2     :     0.007804  d :     0.062336
      dxz     :     0.001915
      dyz     :     0.004885
      dx2y2   :     0.023593
      dxy     :     0.024138

  3 B s       :     3.400540  s :     3.400540
      pz      :     0.141681  p :     1.591170
      px      :     0.677792
      py      :     0.771697
      dz2     :     0.005719  d :     0.034913
      dxz     :     0.002053
      dyz     :     0.000176
      dx2y2   :     0.017498
      dxy     :     0.009467

  4 B s       :     3.492737  s :     3.492737
      pz      :     0.112051  p :     1.389119
      px      :     0.679375
      py      :     0.597693
      dz2     :     0.004754  d :     0.026109
      dxz     :     0.000279
      dyz     :     0.000573
      dx2y2   :     0.008341
      dxy     :     0.012161

  5 B s       :     3.470453  s :     3.470453
      pz      :     0.111503  p :     1.451987
      px      :     0.797611
      py      :     0.542872
      dz2     :     0.005206  d :     0.028139
      dxz     :     0.000323
      dyz     :     0.000791
      dx2y2   :     0.012584
      dxy     :     0.009236

  6 B s       :     3.400539  s :     3.400539
      pz      :     0.141658  p :     1.591175
      px      :     0.734074
      py      :     0.715443
      dz2     :     0.005719  d :     0.034913
      dxz     :     0.000857
      dyz     :     0.001372
      dx2y2   :     0.009268
      dxy     :     0.017697

  7 B s       :     3.492733  s :     3.492733
      pz      :     0.111960  p :     1.389087
      px      :     0.458324
      py      :     0.818803
      dz2     :     0.004754  d :     0.026109
      dxz     :     0.000634
      dyz     :     0.000218
      dx2y2   :     0.012316
      dxy     :     0.008187

  8 B s       :     3.470428  s :     3.470428
      pz      :     0.111510  p :     1.452023
      px      :     0.552453
      py      :     0.788060
      dz2     :     0.005206  d :     0.028138
      dxz     :     0.000878
      dyz     :     0.000236
      dx2y2   :     0.012277
      dxy     :     0.009541

  9 B s       :     3.400485  s :     3.400485
      pz      :     0.141754  p :     1.591222
      px      :     0.762364
      py      :     0.687105
      dz2     :     0.005718  d :     0.034911
      dxz     :     0.000434
      dyz     :     0.001796
      dx2y2   :     0.013681
      dxy     :     0.013283

 10 B s       :     3.492721  s :     3.492721
      pz      :     0.112034  p :     1.389147
      px      :     0.777957
      py      :     0.499156
      dz2     :     0.004754  d :     0.026108
      dxz     :     0.000365
      dyz     :     0.000487
      dx2y2   :     0.010096
      dxy     :     0.010406

 11 B s       :     3.470457  s :     3.470457
      pz      :     0.111440  p :     1.451957
      px      :     0.660686
      py      :     0.679831
      dz2     :     0.005207  d :     0.028140
      dxz     :     0.000470
      dyz     :     0.000644
      dx2y2   :     0.007868
      dxy     :     0.013952



                      *****************************
                      * MAYER POPULATION ANALYSIS *
                      *****************************

  NA   - Mulliken gross atomic population
  ZA   - Total nuclear charge
  QA   - Mulliken gross atomic charge
  VA   - Mayer's total valence
  BVA  - Mayer's bonded valence
  FA   - Mayer's free valence

  ATOM       NA         ZA         QA         VA         BVA        FA
  0 B      5.2395     5.0000    -0.2395     3.6523     3.6523     0.0000
  1 B      5.2395     5.0000    -0.2395     3.6523     3.6523     0.0000
  2 B      5.2395     5.0000    -0.2395     3.6523     3.6523     0.0000
  3 B      4.9281     5.0000     0.0719     2.1212     2.1212    -0.0000
  4 B      4.9154     5.0000     0.0846     2.0153     2.0153    -0.0000
  5 B      4.9170     5.0000     0.0830     2.0654     2.0654    -0.0000
  6 B      4.9281     5.0000     0.0719     2.1212     2.1212    -0.0000
  7 B      4.9153     5.0000     0.0847     2.0152     2.0152    -0.0000
  8 B      4.9170     5.0000     0.0830     2.0655     2.0655    -0.0000
  9 B      4.9281     5.0000     0.0719     2.1214     2.1214    -0.0000
 10 B      4.9154     5.0000     0.0846     2.0153     2.0153     0.0000
 11 B      4.9170     5.0000     0.0830     2.0653     2.0653     0.0000

  Mayer bond orders larger than 0.100000
B(  0-B ,  1-B ) :   0.9957 B(  0-B ,  2-B ) :   0.9957 B(  0-B ,  3-B ) :   0.5087 
B(  0-B ,  4-B ) :   0.3056 B(  0-B , 10-B ) :   0.1252 B(  0-B , 11-B ) :   0.3842 
B(  1-B ,  2-B ) :   0.9957 B(  1-B ,  4-B ) :   0.1252 B(  1-B ,  5-B ) :   0.3842 
B(  1-B ,  6-B ) :   0.5087 B(  1-B ,  7-B ) :   0.3056 B(  2-B ,  7-B ) :   0.1252 
B(  2-B ,  8-B ) :   0.3842 B(  2-B ,  9-B ) :   0.5087 B(  2-B , 10-B ) :   0.3057 
B(  3-B ,  4-B ) :   0.5502 B(  3-B , 11-B ) :   0.5670 B(  4-B ,  5-B ) :   0.5393 
B(  5-B ,  6-B ) :   0.5671 B(  6-B ,  7-B ) :   0.5501 B(  7-B ,  8-B ) :   0.5393 
B(  8-B ,  9-B ) :   0.5671 B(  9-B , 10-B ) :   0.5502 B( 10-B , 11-B ) :   0.5393 


-------
TIMINGS
-------

Total SCF time: 0 days 0 hours 0 min 16 sec 

Total time                  ....      16.896 sec
Sum of individual times     ....      16.285 sec  ( 96.4%)

SCF preparation             ....       0.617 sec  (  3.7%)
Fock matrix formation       ....      12.715 sec  ( 75.3%)
  Startup                   ....       0.040 sec  (  0.3% of F)
  Split-RI-J                ....       4.041 sec  ( 31.8% of F)
  XC integration            ....       7.514 sec  ( 59.1% of F)
    XC Preparation          ....       0.000 sec  (  0.0% of XC)
    Basis function eval.    ....       1.515 sec  ( 20.2% of XC)
    Density eval.           ....       0.889 sec  ( 11.8% of XC)
    XC-Functional eval.     ....       0.228 sec  (  3.0% of XC)
    XC-Potential eval.      ....       1.027 sec  ( 13.7% of XC)
Diagonalization             ....       0.000 sec  (  0.0%)
Density matrix formation    ....       0.476 sec  (  2.8%)
Total Energy calculation    ....       0.442 sec  (  2.6%)
Population analysis         ....       0.042 sec  (  0.2%)
Orbital Transformation      ....       0.085 sec  (  0.5%)
Orbital Orthonormalization  ....       0.000 sec  (  0.0%)
DIIS solution               ....       1.235 sec  (  7.3%)
SOSCF solution              ....       0.673 sec  (  4.0%)
Finished LeanSCF after  16.9 sec

Maximum memory used throughout the entire LEANSCF-calculation: 9.7 MB


-------------------------------------------------------------------------------
                          DFT DISPERSION CORRECTION                            
                                                                               
                              DFTD3 V3.1  Rev 1                                
                          USING Becke-Johnson damping                          
-------------------------------------------------------------------------------
The BP86 functional is recognized
Active option DFTDOPT                   ...         4   

molecular C6(AA) [au] = 11741.158457 


            DFT-D V3
 parameters
 s6 scaling factor         :     1.0000 
 a1 scaling factor         :     0.3946 
 s8 scaling factor         :     3.2822 
 a2 scaling factor         :     4.8516 
 ad hoc parameters k1-k3   :    16.0000     1.3333    -4.0000 

 Edisp/kcal,au: -35.243647892094  -0.056164321957 
 E6   /kcal   : -10.420409479 
 E8   /kcal   : -24.823238413 
 % E8         :  70.433226688 

-------------------------   ----------------
Dispersion correction           -0.056164322
-------------------------   ----------------


-------------------------   --------------------
FINAL SINGLE POINT ENERGY      -296.701229942841
-------------------------   --------------------



           ************************************************************
           *        Program running with 8 parallel MPI-processes     *
           *              working on a common directory               *
           ************************************************************
------------------------------------------------------------------------------
                         ORCA SCF GRADIENT CALCULATION
------------------------------------------------------------------------------

Nuc. rep. gradient        (SHARK) ... done (  0.0 sec)
HCore & Overlap gradient  (SHARK) ... done (  0.1 sec)
Split-RIJ-J gradient      (SHARK) ... done (  0.4 sec)
XC gradient                       ... done (  0.9 sec)
Dispersion correction             ... done (  0.1 sec)

-------------------
DISPERSION GRADIENT
-------------------

   1   B   :    0.001202284    0.000057303   -0.000117984
   2   B   :   -0.000650768    0.001012557   -0.000117984
   3   B   :   -0.000551516   -0.001069860   -0.000117984
   4   B   :   -0.002009412   -0.000347304    0.000186360
   5   B   :   -0.000338069   -0.000531604   -0.000052678
   6   B   :   -0.000318478   -0.000827675   -0.000015699
   7   B   :    0.001305480   -0.001566549    0.000186360
   8   B   :    0.000629417   -0.000026974   -0.000052678
   9   B   :    0.000876026    0.000138027   -0.000015699
  10   B   :    0.000703932    0.001913854    0.000186360
  11   B   :   -0.000291349    0.000558578   -0.000052678
  12   B   :   -0.000557548    0.000689648   -0.000015699

Difference to translation invariance:
           :   -0.0000000000    0.0000000000    0.0000000000

Difference to rotation invariance:
           :   -0.0000000000   -0.0000000000    0.0000000000

Norm of the Dispersion gradient    ...    0.0045306176
RMS gradient                       ...    0.0007551029
MAX gradient                       ...    0.0020094116

------------------
CARTESIAN GRADIENT
------------------

   1   B   :   -0.001833230   -0.000161248    0.010598526
   2   B   :    0.001058238   -0.001516250    0.010599587
   3   B   :    0.000778384    0.001684674    0.010587730
   4   B   :    0.051090762    0.008488188    0.002300940
   5   B   :    0.019394162    0.031511315   -0.005622198
   6   B   :    0.014241577    0.037501506   -0.007276912
   7   B   :   -0.032901168    0.040004402    0.002301986
   8   B   :   -0.036990440    0.001038680   -0.005612764
   9   B   :   -0.039593108   -0.006417216   -0.007288596
  10   B   :   -0.018200536   -0.048502156    0.002315234
  11   B   :    0.017594229   -0.032559461   -0.005632439
  12   B   :    0.025361129   -0.031072435   -0.007271093

Difference to translation invariance:
           :   -0.0000000000   -0.0000000000    0.0000000000

Difference to rotation invariance:
           :    0.0000262704    0.0000120582   -0.0000045145

Norm of the Cartesian gradient     ...    0.1326666710
RMS gradient                       ...    0.0221111118
MAX gradient                       ...    0.0510907618

-------
TIMINGS
-------

Total SCF gradient time     ....        1.446 sec

Densities                   ....       0.001 sec  (  0.1%)
One electron gradient       ....       0.053 sec  (  3.7%)
RI-J Coulomb gradient       ....       0.444 sec  ( 30.7%)
XC gradient                 ....       0.884 sec  ( 61.2%)

Maximum memory used throughout the entire SCFGRAD-calculation: 29.3 MB
------------------------------------------------------------------------------
                         ORCA GEOMETRY RELAXATION STEP
------------------------------------------------------------------------------

Reading the OPT-File                    .... done
Getting information on internals        .... done
Copying old internal coords+grads       .... done
Making the new internal coordinates     .... (2022 redundants) done
Validating the new internal coordinates .... (2022 redundants) done
Calculating the B-matrix                .... done
Calculating the G,G- and P matrices     .... done
Transforming gradient to internals      .... done
Projecting the internal gradient        .... done
Number of atoms                         ....  12
Number of internal coordinates          .... 186
Current Energy                          ....  -296.701229943 Eh
Current gradient norm                   ....     0.132666671 Eh/bohr
Maximum allowed component of the step   ....  0.300
Current trust radius                    ....  0.300
Evaluating the initial hessian          ....  (Almloef) done
Projecting the Hessian                  .... done
Forming the augmented Hessian           .... done
Diagonalizing the augmented Hessian     .... done
Last element of RFO vector              ....  0.754067308
Lowest eigenvalues of augmented Hessian:
 -0.102432779  0.010157284  0.010159145  0.010164291  0.010444158
Length of the computed step             ....  0.871006000
Warning: the length of the step is outside the trust region - taking restricted step instead
The input lambda is                     ....     0.009157
   iter:   5  x=   -0.036991  g=  355.438102 f(x)=     6.997684
   iter:  10  x=   -0.311919  g=    1.297013 f(x)=     0.089955
   iter:  15  x=   -0.358246  g=    0.453143 f(x)=     0.000000
The output lambda is                    ....    -0.358246 (16 iterations)
The final length of the internal step   ....  0.300000000
Converting the step to Cartesian space:
 Initial RMS(Int)=    0.0219970673
Transforming coordinates:
 Iter   0:  RMS(Cart)=    0.0479056030 RMS(Int)=    0.0219961154
done
Storing new coordinates                 .... done

                                .--------------------.
          ----------------------|Geometry convergence|-------------------------
          Item                value                   Tolerance       Converged
          ---------------------------------------------------------------------
          RMS gradient        0.0089079615            0.0001000000      NO
          MAX gradient        0.0298234782            0.0003000000      NO
          RMS step            0.0219970673            0.0020000000      NO
          MAX step            0.0747893157            0.0040000000      NO
          -------------------------------------------------------------------------
          ........................................................
          Max(Bonds)      0.0396      Max(Angles)    0.51
          Max(Dihed)        0.28      Max(Improp)    0.00
          ---------------------------------------------------------------------

The optimization has not yet converged - more geometry cycles are needed


    ---------------------------------------------------------------------------
                         Redundant Internal Coordinates
                            (Angstroem and degrees)

        Definition                    Value    dE/dq     Step     New-Value
    ----------------------------------------------------------------------------
     1. B(B   1,B   0)                1.8000  0.029823 -0.0303    1.7697   
     2. B(B   2,B   1)                1.8000  0.029584 -0.0301    1.7699   
     3. B(B   2,B   0)                1.8000  0.029455 -0.0299    1.7701   
     4. B(B   3,B   0)                2.3061  0.028554 -0.0394    2.2667   
     5. B(B   4,B   0)                2.7128  0.023574 -0.0346    2.6782   
     6. B(B   4,B   3)                2.2619  0.025101 -0.0328    2.2291   
     7. B(B   5,B   1)                2.5450  0.023712 -0.0349    2.5101   
     8. B(B   5,B   4)                2.2619  0.024734 -0.0316    2.2303   
     9. B(B   6,B   5)                2.2619  0.028061 -0.0369    2.2249   
    10. B(B   6,B   1)                2.3061  0.028497 -0.0394    2.2668   
    11. B(B   7,B   1)                2.7128  0.023549 -0.0346    2.6782   
    12. B(B   7,B   6)                2.2619  0.025128 -0.0328    2.2291   
    13. B(B   8,B   7)                2.2619  0.024732 -0.0316    2.2303   
    14. B(B   8,B   2)                2.5450  0.023775 -0.0350    2.5100   
    15. B(B   9,B   2)                2.3061  0.028667 -0.0396    2.2666   
    16. B(B   9,B   8)                2.2619  0.027857 -0.0366    2.2252   
    17. B(B  10,B   9)                2.2619  0.025165 -0.0329    2.2290   
    18. B(B  10,B   2)                2.7128  0.023533 -0.0346    2.6782   
    19. B(B  11,B   3)                2.2619  0.028015 -0.0368    2.2250   
    20. B(B  11,B  10)                2.2619  0.024753 -0.0316    2.2303   
    21. B(B  11,B   0)                2.5450  0.023674 -0.0349    2.5101   
    22. A(B   1,B   0,B   4)           88.21 -0.000356   -0.03     88.18   
    23. A(B   4,B   0,B  11)          107.86  0.001639   -0.09    107.77   
    24. A(B   1,B   0,B   2)           60.00 -0.000019    0.00     60.00   
    25. A(B   3,B   0,B  11)           55.32  0.001062   -0.08     55.24   
    26. A(B   1,B   0,B  11)          160.39 -0.001561    0.15    160.54   
    27. A(B   1,B   0,B   3)          140.69  0.000395   -0.06    140.63   
    28. A(B   2,B   0,B   4)          147.30 -0.000445   -0.02    147.28   
    29. A(B   2,B   0,B   3)          156.47 -0.000288    0.04    156.51   
    30. A(B   2,B   0,B  11)          102.15 -0.001485    0.14    102.28   
    31. A(B   3,B   0,B   4)           52.82  0.000705   -0.02     52.80   
    32. A(B   0,B   1,B   7)          147.30 -0.000466   -0.01    147.28   
    33. A(B   0,B   1,B   2)           60.00 -0.000084    0.01     60.01   
    34. A(B   2,B   1,B   6)          140.69  0.000472   -0.07    140.62   
    35. A(B   5,B   1,B   7)          107.86  0.001667   -0.09    107.77   
    36. A(B   5,B   1,B   6)           55.32  0.001073   -0.08     55.24   
    37. A(B   2,B   1,B   5)          160.39 -0.001677    0.16    160.56   
    38. A(B   0,B   1,B   5)          102.15 -0.001548    0.14    102.29   
    39. A(B   6,B   1,B   7)           52.82  0.000719   -0.03     52.79   
    40. A(B   0,B   1,B   6)          156.47 -0.000380    0.05    156.52   
    41. A(B   2,B   1,B   7)           88.21 -0.000283   -0.04     88.17   
    42. A(B   1,B   2,B   9)          156.47 -0.000417    0.05    156.52   
    43. A(B   0,B   2,B   9)          140.69  0.000432   -0.07    140.62   
    44. A(B   0,B   2,B   1)           60.00  0.000103   -0.01     59.99   
    45. A(B   1,B   2,B   8)          102.15 -0.001577    0.15    102.29   
    46. A(B   1,B   2,B  10)          147.30 -0.000314   -0.04    147.26   
    47. A(B   0,B   2,B   8)          160.39 -0.001555    0.14    160.54   
    48. A(B   8,B   2,B   9)           55.32  0.000998   -0.07     55.25   
    49. A(B   0,B   2,B  10)           88.21 -0.000339   -0.03     88.17   
[...]
      dxz     :     0.007201
      dyz     :     0.005549
      dx2y2   :     0.014239
      dxy     :     0.013887

  7 B s       :     3.194279  s :     3.194279
      pz      :     0.439168  p :     1.571375
      px      :     0.563552
      py      :     0.568655
      dz2     :     0.003390  d :     0.047696
      dxz     :     0.006789
      dyz     :     0.006836
      dx2y2   :     0.015449
      dxy     :     0.015231

  8 B s       :     3.364495  s :     3.364495
      pz      :     0.439154  p :     1.861030
      px      :     0.619009
      py      :     0.802867
      dz2     :     0.003873  d :     0.044711
      dxz     :     0.009575
      dyz     :     0.003176
      dx2y2   :     0.014827
      dxy     :     0.013261

  9 B s       :     3.364929  s :     3.364929
      pz      :     0.438188  p :     1.859881
      px      :     0.813127
      py      :     0.608566
      dz2     :     0.003877  d :     0.044722
      dxz     :     0.003064
      dyz     :     0.009698
      dx2y2   :     0.014706
      dxy     :     0.013377

 10 B s       :     3.193905  s :     3.193905
      pz      :     0.439054  p :     1.573219
      px      :     0.569724
      py      :     0.564441
      dz2     :     0.003389  d :     0.047762
      dxz     :     0.006832
      dyz     :     0.006805
      dx2y2   :     0.015438
      dxy     :     0.015297

 11 B s       :     3.364768  s :     3.364768
      pz      :     0.438044  p :     1.859804
      px      :     0.665075
      py      :     0.756684
      dz2     :     0.003870  d :     0.044713
      dxz     :     0.005910
      dyz     :     0.006844
      dx2y2   :     0.014036
      dxy     :     0.014052



                     *******************************
                     * LOEWDIN POPULATION ANALYSIS *
                     *******************************

----------------------
LOEWDIN ATOMIC CHARGES
----------------------
   0 B :   -0.058318
   1 B :   -0.058704
   2 B :   -0.058356
   3 B :   -0.000541
   4 B :    0.059366
   5 B :   -0.000373
   6 B :   -0.000660
   7 B :    0.059592
   8 B :   -0.000732
   9 B :   -0.000197
  10 B :    0.059063
  11 B :   -0.000138

-------------------------------
LOEWDIN REDUCED ORBITAL CHARGES
-------------------------------
  0 B s       :     2.558683  s :     2.558683
      pz      :     0.654165  p :     2.277667
      px      :     0.838278
      py      :     0.785223
      dz2     :     0.021102  d :     0.221969
      dxz     :     0.025691
      dyz     :     0.025372
      dx2y2   :     0.080493
      dxy     :     0.069311

  1 B s       :     2.558529  s :     2.558529
      pz      :     0.654290  p :     2.278109
      px      :     0.787198
      py      :     0.836622
      dz2     :     0.021112  d :     0.222067
      dxz     :     0.025355
      dyz     :     0.025660
      dx2y2   :     0.078813
      dxy     :     0.071127

  2 B s       :     2.558614  s :     2.558614
      pz      :     0.654173  p :     2.277747
      px      :     0.810366
      py      :     0.813208
      dz2     :     0.021106  d :     0.221995
      dxz     :     0.025539
      dyz     :     0.025519
      dx2y2   :     0.065494
      dxy     :     0.084336

  3 B s       :     2.787900  s :     2.787900
      pz      :     0.474335  p :     2.104532
      px      :     0.669874
      py      :     0.960323
      dz2     :     0.011297  d :     0.108110
      dxz     :     0.018093
      dyz     :     0.009133
      dx2y2   :     0.031793
      dxy     :     0.037794

  4 B s       :     2.735672  s :     2.735672
      pz      :     0.462397  p :     2.075312
      px      :     0.814494
      py      :     0.798421
      dz2     :     0.011433  d :     0.129650
      dxz     :     0.014942
      dyz     :     0.014729
      dx2y2   :     0.047153
      dxy     :     0.041392

  5 B s       :     2.788016  s :     2.788016
      pz      :     0.473787  p :     2.104211
      px      :     0.964930
      py      :     0.665495
      dz2     :     0.011312  d :     0.108146
      dxz     :     0.008676
      dyz     :     0.018536
      dx2y2   :     0.031967
      dxy     :     0.037655

  6 B s       :     2.787772  s :     2.787772
      pz      :     0.474068  p :     2.104737
      px      :     0.841038
      py      :     0.789631
      dz2     :     0.011301  d :     0.108151
      dxz     :     0.015252
      dyz     :     0.011912
      dx2y2   :     0.035999
      dxy     :     0.033688

  7 B s       :     2.735877  s :     2.735877
      pz      :     0.462252  p :     2.074944
      px      :     0.673960
      py      :     0.938733
      dz2     :     0.011431  d :     0.129588
      dxz     :     0.013014
      dyz     :     0.016598
      dx2y2   :     0.042570
      dxy     :     0.045974

  8 B s       :     2.787745  s :     2.787745
      pz      :     0.474570  p :     2.104872
      px      :     0.706777
      py      :     0.923525
      dz2     :     0.011300  d :     0.108116
      dxz     :     0.019545
      dyz     :     0.007670
      dx2y2   :     0.037120
      dxy     :     0.032481

  9 B s       :     2.788153  s :     2.788153
      pz      :     0.473600  p :     2.103911
      px      :     0.934222
      py      :     0.696090
      dz2     :     0.011299  d :     0.108133
      dxz     :     0.007493
      dyz     :     0.019759
      dx2y2   :     0.036619
      dxy     :     0.032964

 10 B s       :     2.735404  s :     2.735404
      pz      :     0.462298  p :     2.075722
      px      :     0.930742
      py      :     0.682682
      dz2     :     0.011438  d :     0.129811
      dxz     :     0.016499
      dyz     :     0.013154
      dx2y2   :     0.043178
      dxy     :     0.045542

 11 B s       :     2.788185  s :     2.788185
      pz      :     0.473509  p :     2.103838
      px      :     0.773110
      py      :     0.857219
      dz2     :     0.011288  d :     0.108116
      dxz     :     0.012610
      dyz     :     0.014626
      dx2y2   :     0.035351
      dxy     :     0.034241



                      *****************************
                      * MAYER POPULATION ANALYSIS *
                      *****************************

  NA   - Mulliken gross atomic population
  ZA   - Total nuclear charge
  QA   - Mulliken gross atomic charge
  VA   - Mayer's total valence
  BVA  - Mayer's bonded valence
  FA   - Mayer's free valence

  ATOM       NA         ZA         QA         VA         BVA        FA
  0 B      4.6488     5.0000     0.3512     2.8201     2.8201     0.0000
  1 B      4.6418     5.0000     0.3582     2.8114     2.8114    -0.0000
  2 B      4.6461     5.0000     0.3539     2.8175     2.8175     0.0000
  3 B      5.2695     5.0000    -0.2695     3.2790     3.2790     0.0000
  4 B      4.8135     5.0000     0.1865     3.3145     3.3145    -0.0000
  5 B      5.2713     5.0000    -0.2713     3.2779     3.2779    -0.0000
  6 B      5.2717     5.0000    -0.2717     3.2776     3.2776     0.0000
  7 B      4.8134     5.0000     0.1866     3.3143     3.3143     0.0000
  8 B      5.2702     5.0000    -0.2702     3.2790     3.2790    -0.0000
  9 B      5.2695     5.0000    -0.2695     3.2800     3.2800    -0.0000
 10 B      4.8149     5.0000     0.1851     3.3160     3.3160     0.0000
 11 B      5.2693     5.0000    -0.2693     3.2800     3.2800    -0.0000

  Mayer bond orders larger than 0.100000
B(  0-B ,  1-B ) :   0.4767 B(  0-B ,  2-B ) :   0.4799 B(  0-B ,  3-B ) :   0.5081 
B(  0-B ,  4-B ) :   0.4400 B(  0-B , 10-B ) :   0.4402 B(  0-B , 11-B ) :   0.5077 
B(  1-B ,  2-B ) :   0.4762 B(  1-B ,  4-B ) :   0.4390 B(  1-B ,  5-B ) :   0.5057 
B(  1-B ,  6-B ) :   0.5056 B(  1-B ,  7-B ) :   0.4388 B(  2-B ,  7-B ) :   0.4389 
B(  2-B ,  8-B ) :   0.5076 B(  2-B ,  9-B ) :   0.5070 B(  2-B , 10-B ) :   0.4398 
B(  3-B ,  4-B ) :   1.0798 B(  3-B , 11-B ) :   1.4822 B(  4-B ,  5-B ) :   1.0804 
B(  5-B ,  6-B ) :   1.4835 B(  6-B ,  7-B ) :   1.0808 B(  7-B ,  8-B ) :   1.0804 
B(  8-B ,  9-B ) :   1.4827 B(  9-B , 10-B ) :   1.0807 B( 10-B , 11-B ) :   1.0803 


-------
TIMINGS
-------

Total SCF time: 0 days 0 hours 0 min 4 sec 

Total time                  ....       4.486 sec
Sum of individual times     ....       4.132 sec  ( 92.1%)

SCF preparation             ....       0.723 sec  ( 16.1%)
Fock matrix formation       ....       2.846 sec  ( 63.4%)
  Startup                   ....       0.008 sec  (  0.3% of F)
  Split-RI-J                ....       0.994 sec  ( 34.9% of F)
  XC integration            ....       1.988 sec  ( 69.9% of F)
    XC Preparation          ....       0.000 sec  (  0.0% of XC)
    Basis function eval.    ....       0.392 sec  ( 19.7% of XC)
    Density eval.           ....       0.273 sec  ( 13.7% of XC)
    XC-Functional eval.     ....       0.049 sec  (  2.5% of XC)
    XC-Potential eval.      ....       0.298 sec  ( 15.0% of XC)
Diagonalization             ....       0.000 sec  (  0.0%)
Density matrix formation    ....       0.095 sec  (  2.1%)
Total Energy calculation    ....       0.078 sec  (  1.7%)
Population analysis         ....       0.149 sec  (  3.3%)
Orbital Transformation      ....       0.014 sec  (  0.3%)
Orbital Orthonormalization  ....       0.000 sec  (  0.0%)
DIIS solution               ....       0.030 sec  (  0.7%)
SOSCF solution              ....       0.197 sec  (  4.4%)
Finished LeanSCF after   4.7 sec

Maximum memory used throughout the entire LEANSCF-calculation: 12.2 MB


-------------------------------------------------------------------------------
                          DFT DISPERSION CORRECTION                            
                                                                               
                              DFTD3 V3.1  Rev 1                                
                          USING Becke-Johnson damping                          
-------------------------------------------------------------------------------
The BP86 functional is recognized
Active option DFTDOPT                   ...         4   

molecular C6(AA) [au] = 4351.428384 


            DFT-D V3
 parameters
 s6 scaling factor         :     1.0000 
 a1 scaling factor         :     0.3946 
 s8 scaling factor         :     3.2822 
 a2 scaling factor         :     4.8516 
 ad hoc parameters k1-k3   :    16.0000     1.3333    -4.0000 

 Edisp/kcal,au: -20.736912333223  -0.033046369781 
 E6   /kcal   :  -5.976899579 
 E8   /kcal   : -14.760012755 
 % E8         :  71.177485430 

-------------------------   ----------------
Dispersion correction           -0.033046370
-------------------------   ----------------


-------------------------   --------------------
FINAL SINGLE POINT ENERGY      -297.750638918829
-------------------------   --------------------

                                *** OPTIMIZATION RUN DONE ***



           ************************************************************
           *        Program running with 8 parallel MPI-processes     *
           *              working on a common directory               *
           ************************************************************

------------------------------------------------------------------------------
                              ORCA PROPERTY CALCULATIONS
------------------------------------------------------------------------------

GBWName                                 ... quasi_planar_nn1.80.gbw
Number of atoms                         ...     12
Number of basis functions               ...    168
Max core memory                         ...   2500 MB

Electric properties:
Dipole moment                           ... YES
Quadrupole moment                       ...  NO
Static polarizability (Dipole/Dipole)   ...  NO
Static polarizability (Dipole/Quad.)    ...  NO
Static polarizability (Quad./Quad.)     ...  NO
Static polarizability (Velocity)        ...  NO
Static hyperpolarizability              ...  NO

Atomic electric properties:
Dipole moment                           ...  NO
Quadrupole moment                       ...  NO
Static polarizability                   ...  NO

Choice of electric origin               ... Center of mass
Position of electric origin             ...    -0.000000    -0.000000    -0.000000

General magnetic properties:
Magnetizability                         ...  NO

EPR properties:
g-Tensor (aka g-matrix)                 ...  NO
Zero-Field splitting spin-orbit         ...  NO
Zero-field splitting spin-spin          ...  NO
Hyperfine couplings                     ...  NO (   0 nuclei)
Quadrupole couplings                    ...  NO (   0 nuclei)
Contact density                         ...  NO (   0 nuclei)

NMR properties:
Chemical shifts                         ...  NO (   0 nuclei)
Spin-rotation constants                 ...  NO (   0 nuclei)
Spin-spin couplings                     ...  NO (   0 nuclei,    0 pairs)

Choice of magnetic origin               ... GIAO
Position of magnetic origin             ...     0.000000     0.000000     0.000000

Properties with geometric perturbations:
SCF Hessian                             ...  NO
IR spectrum                             ...  NO
VCD spectrum                            ...  NO
X-ray spectroscopy properties:
SCF XES/XAS/RIXS spectra                ...  NO

SCF SOC stabilization energy            ...  NO
Diagonal Born-Oppenheimer correction    ...  NO

-------------
DIPOLE MOMENT
-------------

Method             : SCF
Type of density    : Electron Density
Multiplicity       :   1
Irrep              :   0
Energy             :  -297.7175925490478221 Eh
Basis              : AO
                                X                 Y                 Z
Electronic contribution:      0.000329032      -0.000388515       0.775905406
Nuclear contribution   :     -0.000000000      -0.000000000      -0.000000000
                        -----------------------------------------
Total Dipole Moment    :      0.000329032      -0.000388515       0.775905406
                        -----------------------------------------
Magnitude (a.u.)       :      0.775905573
Magnitude (Debye)      :      1.972195235



--------------------
Rotational spectrum 
--------------------
 
Rotational constants in cm-1:             0.058832             0.058790             0.030096 
Rotational constants in MHz :          1763.737769          1762.490526           902.250729 

Dipole components along the rotational axes: 
x,y,z [a.u.] :    -0.000972     0.000048     0.775905 
x,y,z [Debye]:    -0.002471     0.000123     1.972194 

 

Dipole moment calculation done in   0.0 sec 

Maximum memory used throughout the entire PROP-calculation: 9.9 MB

--------------------------------
SUGGESTED CITATIONS FOR THIS RUN
--------------------------------

Below you find a list of papers that are relevant to this ORCA run
We neither can nor want to force you to cite these papers, but we appreciate if you do
You receive ORCA, which is the product of decades of hard work by many enthusiastic individuals, for free
The only thing we kindly ask in return is that you cite our papers,
We deeply appreciate it, if you show your appreciation for ORCA by not just citing the generic ORCA reference.

Please note that relegating all ORCA citations to the supporting information does *not* help us.
SI sections are not indexed - citations you put there will not count into any citation statistics
But we need these citations in order to attract the funding resources that allow us to do what we are doing

Therefore, if you are a happy ORCA user, please consider citing a few of the papers listed below in the main body of your paper

In addition to the list printed below, the program has created the file quasi_planar_nn1.80.bibtex that contains the list in bibtex format
You can import this file easily into all common literature databanks and citation aid programs

It goes without saying that in many instances, there are alternative algorithms to achieve similar
results as the ones you have gotten from ORCA. It is, of course, also the case that in some instances
ORCA just re-implements algorithms worked out by others. We are fully aware of that and we are also
fully appreciative of our colleagues work. Hence this citation list should not be read as indicating
that the listed papers, which are focused on our own work, are the only ones worth citing. It simply
meant to make it easier for users to cite ORCA specific papers. It is not a substitute for doing your
own literature research and citing the relevant literature in a scientifically appropriate manner.

List of essential papers. We consider these as the minimum necessary citations

  1. Neese, F.
     Software update: the ORCA program system, version 6.0
     WIRES Comput. Molec. Sci. 2025 15(1), e70019
     doi.org/10.1002/wcms.70019

List of papers to cite with high priority. The work reported in these papers was absolutely
necessary for this run to complete.
Our perspective: the developers of density functionals and basis sets usually get cited in chemistry papers
Good! But without the algorithms to do something with them, the functionals or basis sets would not do anything.
Hence, in our opinion, the algorithm design and method developments papers are equally worthy of getting cited

  1. Neese, F.
     An improvement of the resolution of the identity approximation for the formation of the Coulomb matrix
     J. Comp. Chem. 2003 24(14), 1740-1747
     doi.org/10.1002/jcc.10318
  2. Grimme, S.; Antony, J.; Ehrlich, S.; Krieg, H.
     A consistent and accurate ab initio parametrization of density functional dispersion correction (DFT-D) for the 94 elements H-Pu
     J. Chem. Phys. 2010 132 , 154104
     doi.org/10.1063/1.3382344
  3. Grimme, S.; Ehrlich, S.; Goerigk, L.
     Effect of the damping function in dispersion corrected density functional theory
     J. Comput. Chem. 2011 32(7), 1456-1465
     doi.org/10.1002/jcc.21759
  4. Helmich-Paris, B.
     A trust-region augmented Hessian implementation for restricted and unrestricted Hartree–Fock and Kohn–Sham methods
     J. Chem. Phys. 2021 154 , 164104
     doi.org/10.1063/5.0040798
  5. Neese, F.
     The SHARK Integral Generation and Digestion System
     J. Comp. Chem. 2022 44(3), 381
     doi.org/10.1002/jcc.26942

List of suggested additional citations. These are papers that are important in the 'surrounding' of 
of this run, or papers that preceded the highly important papers. If you like your results we are grateful for a citation.

  1. Neese, F.
     The ORCA program system
     WIRES Comput. Molec. Sci. 2012 2(1), 73-78
     doi.org/10.1002/wcms.81
  2. Neese, F.
     Software update: the ORCA program system, version 4.0
     WIRES Comput. Molec. Sci. 2018 8(1), 1-6
     doi.org/10.1002/wcms.1327
  3. Neese, F.; Wennmohs, F.; Becker, U.; Riplinger, C.
     The ORCA quantum chemistry program package
     J. Chem. Phys. 2020 152(22), 224108
     doi.org/10.1063/5.0004608
  4. Neese, F.
     Software update: The ORCA program system—Version 5.0
     WIRES Comput. Molec. Sci. 2022 12(1), e1606
     doi.org/10.1002/wcms.1606

List of optional additional citations

  1. Neese, F.
     Approximate second-order SCF convergence for spin unrestricted wavefunctions
     Chem. Phys. Lett. 2000 325(1-3), 93-98
     doi.org/10.1016/s0009-2614(00)00662-x

Timings for individual modules:

Sum of individual times          ...      693.027 sec (=  11.550 min)
Startup calculation              ...       93.105 sec (=   1.552 min)  13.4 %
SCF iterations                   ...      466.383 sec (=   7.773 min)  67.3 %
Property calculations            ...        0.800 sec (=   0.013 min)   0.1 %
SCF Gradient evaluation          ...      132.031 sec (=   2.201 min)  19.1 %
Geometry relaxation              ...        0.706 sec (=   0.012 min)   0.1 %
                             ****ORCA TERMINATED NORMALLY****
TOTAL RUN TIME: 0 days 0 hours 12 minutes 16 seconds 367 msec
