
                                 *****************
                                 * O   R   C   A *
                                 *****************

                                            #,                                       
                                            ###                                      
                                            ####                                     
                                            #####                                    
                                            ######                                   
                                           ########,                                 
                                     ,,################,,,,,                         
                               ,,#################################,,                 
                          ,,##########################################,,             
                       ,#########################################, ''#####,          
                    ,#############################################,,   '####,        
                  ,##################################################,,,,####,       
                ,###########''''           ''''###############################       
              ,#####''   ,,,,##########,,,,          '''####'''          '####       
            ,##' ,,,,###########################,,,                        '##       
           ' ,,###''''                  '''############,,,                           
         ,,##''                                '''############,,,,        ,,,,,,###''
      ,#''                                            '''#######################'''  
     '                                                          ''''####''''         
             ,#######,   #######,   ,#######,      ##                                
            ,#'     '#,  ##    ##  ,#'     '#,    #''#        ,####,    ,#,          
            ##       ##  ##   ,#'  ##            #'  '#       #'       ,# #          
            ##       ##  #######   ##           ,######,      #####,      #          
            '#,     ,#'  ##    ##  '#,     ,#' ,#      #,     #,   #      #          
             '#######'   ##     ##  '#######'  #'      '#     '####' #    #          



                #########################################################
                #                        -***-                          #
                #          Department of theory and spectroscopy        #
                #                                                       #
                #                      Frank Neese                      #
                #                                                       #
                #     Directorship, Architecture, Infrastructure        #
                #                    SHARK, DRIVERS                     #
                #        Core code/Algorithms in most modules           #
                #                                                       #
                #        Max Planck Institute fuer Kohlenforschung      #
                #                Kaiser Wilhelm Platz 1                 #
                #                 D-45470 Muelheim/Ruhr                 #
                #                      Germany                          #
                #                                                       #
                #                  All rights reserved                  #
                #                        -***-                          #
                #########################################################


                         Program Version 6.1.1  -  RELEASE   -
                                (GIT: $487d211c$)
                          ($2025-11-21 10:33:24 +0100$)
                                                                         
                                  - NO-DMRG VERSION -                    
                                                                         


 With contributions from (in alphabetic order):
[Max-Planck-Institut fuer Kohlenforschung]                               
  Daniel Aravena         : Magnetic Suceptibility                        
  Michael Atanasov       : Ab Initio Ligand Field Theory (pilot matlab implementation)
  Alexander A. Auer      : GIAO ZORA, VPT2 properties, NMR spectrum      
  Ute Becker             : All parallelization in ORCA, NUMFREQ, NUMCALC 
  Giovanni Bistoni       : ED, misc. LED, open-shell LED, HFLD           
  Dmytro Bykov           : pre 5.0 version of the SCF Hessian            
  Marcos Casanova-Páez   : Triplet and SCS-CIS(D). UHF-(DLPNO)-IP/EA/STEOM-CCSD. UHF-CVS-IP/STEOM-CCSD   
  Vijay G. Chilkuri      : MRCI spin determinant printing, contributions to CSF-ICE 
  Pauline Colinet        : FMM embedding                                 
  Dipayan Datta          : RHF DLPNO-CCSD density                        
  Achintya Kumar Dutta   : EOM-CC, STEOM-CC                              
  Nicolas Foglia         : Exact transition moments, OPA infrastructure, MCD improvements    
  Dmitry Ganyushin       : Spin-Orbit,Spin-Spin,Magnetic field MRCI      
  Miquel Garcia-Rates    : C-PCM and meta-GGA Hessian, CCSD/C-PCM, Gaussian charge scheme 
  Tiago L. C. Gouveia    : GS-ROHF, GS-ROCIS                             
  Yang Guo               : DLPNO-NEVPT2, F12-NEVPT2, CIM, IAO-localization        
  Andreas Hansen         : Spin unrestricted coupled pair/coupled cluster methods 
  Ingolf Harden          : AUTO-CI MPn and infrastructure                
  Benjamin Helmich-Paris : MC-RPA, TRAH-(SCF,CASSCF), AVAS, COSX integrals, SCF dyn. polar., MC-PDFT, srDFT 
  Lee Huntington         : MR-EOM, pCC                                   
  Robert Izsak           : Overlap fitted RIJCOSX, COSX-SCS-MP3, EOM     
  Riya Kayal             : Wick's Theorem for AUTO-CI, AUTO-CI UHF-CCSDT 
  Emily Kempfer          : AUTO-CI RHF CISDT and CCSDT, approximate NEVPT4
  Christian Kollmar      : KDIIS, OOCD, Brueckner-CCSD(T), CCSD density, CASPT2, CASPT2-K, improved NEVPT2 
  Axel Koslowski         : Symmetry handling                             
  Simone Kossmann        : meta-GGA functionals, TD-DFT gradient, OOMP2, (MP2 Hessian; deprecated post 5.0) 
  Lucas Lang             : DCDCAS, Hyperfine gauge corrections, ICE-SOC+SSC
  Marvin Lechner         : AUTO-CI (C++ implementation), FIC-MRCC        
  Spencer Leger          : CASSCF response                               
  Dagmar Lenk            : GEPOL surface, SMD, ORCA-2-JSON               
  Dimitrios Liakos       : Extrapolation schemes; Compound Job, Property file
  Dimitrios Manganas     : Further ROCIS development; embedding schemes. LFT, Crystal Embedding 
  Dimitrios Pantazis     : SARC Basis sets                               
  Anastasios Papadopoulos: AUTO-CI, single reference methods and gradients 
  Taras Petrenko         : pre 6.0 DFT Hessian and TD-DFT gradient,  ECA, NRVS 
  Petra Pikulova         : Analytic Raman intensities                    
  Peter Pinski           : DLPNO-MP2, DLPNO-MP2 Gradient                 
  Shashank Vittal Rao    : ES-AILFT, MagRelax                            
  Christoph Reimann      : Effective Core Potentials                     
  Marius Retegan         : Local ZFS, SOC                                
  Christoph Riplinger    : Optimizer, TS searches, QM/MM, DLPNO-CCSD(T), (RO)-DLPNO pert. Triples 
  Michael Roemelt        : Original ROCIS implementation, recursive CI coupling coefficients
  Masaaki Saitow         : Open-shell DLPNO-CCSD energy and density      
  Barbara Sandhoefer     : DKH picture change effects                    
  Yorick L. A. Schmerwitz: GMF and freeze-and-release deltaSCF, NEB S-IDPP initial path                    
  Kantharuban Sivalingam : CASSCF convergence/infrastructure, NEVPT2, NEVPT3, NEVPT4(SD), FIC-MRCI and CEPA variants
  Bernardo de Souza      : ESD, SOC TD-DFT                               
  Georgi L. Stoychev     : AutoAux, RI-MP2 NMR, DLPNO-MP2 response, X2C  
  Van Anh Tran           : RI-MP2 g-tensors                              
  Willem Van den Heuvel  : Paramagnetic NMR                              
  Zikuan Wang            : NOTCH, Electric field optimization            
  Frank Wennmohs         : Technical directorship and infrastructure     
  Hang Xu                : AUTO-CI-Response properties                   
                                                                         
[FACCTs GmbH]                                                            
  Markus Bursch, Nicolas Foglia, Miquel Garcia-Rates, Ingolf Harden, Hagen Neugebauer, Anastasios Papadopoulos, 
  Christoph Riplinger, Bernardo de Souza, Georgi L. Stoychev                                                    
                                                                 
  APM, various basis sets, CI-OPT, improved COSX, DLPNO-Multilevel,           
  DOCKER, DRACO, updates on ESD, Fragmentator, GOAT, IRC, LR-CPCM, L-BFGS, MBIS, meta-GGA TD-DFT gradient, ML-optimized integration grids, 
  MM, NACMEs, nearIR, NEB, NEB-TS, NL-DFT gradient (VV10), 2- and 3-layer-ONIOM, interface openCOSMO-RS, QMMM,   
  Crystal-QMMM, RESP, rigid body optimization, SF, symmetry and pop. for TD-DFT, various functionals, SOLVATOR                                   
                                                                         
[Other institutions]                                                     
  V. Asgeirsson          : NEB                                           
  Christoph Bannwarth    : sTDA-DFT, sTD-DFT, PBEh-3c, B97-3c, D3        
  Giovanni Bistoni       : ETS/NOCV, ADLD/ADEX, COVALED                  
  Martin Brehm           : Molecular dynamics                            
  Ronald Cardenas        : ETS/NOCV                                      
  Martina Colucci        : COVALED                                       
  Sebastian Ehlert       : rSCAN, r2SCAN, r2SCAN-3c, D4, dhf basis sets  
  Marvin Friede          : D4 for Fr, Ra, Ac-Lr                          
  Lars Goerigk           : TD-DFT with DH, B97 family of functionals     
  Stefan Grimme          : VdW corrections, initial TS optimization, DFT functionals, gCP, sTDA/sTD-DF 
  Waldemar Hujo          : DFT-NL                                        
  H. Jonsson             : NEB                                           
  Holger Kruse           : gCP                                           
  Marcel Mueller         : wB97X-3c, vDZP basis set                      
  Hagen Neugebauer       : wr2SCAN, Native XTB                           
  Gianluca Regni         : ADLD/ADEX                                     
  Tobias Risthaus        : pre 6.0 range-separated hybrid DFT and stability analysis
  Lukas Wittmann         : regularized MP2, r2SCAN double-hybrids, wr2SCAN        
                                                                         
We gratefully acknowledge several colleagues who have allowed us to      
interface, adapt or use parts of their codes:                            
  Ed Valeev, F. Pavosevic, A. Kumar             : LibInt (2-el integral package), F12 methods 
  Garnet Chan, S. Sharma, J. Yang, R. Olivares  : DMRG                   
  Ulf Ekstrom                                   : XCFun DFT Library      
  Mihaly Kallay                                 : mrcc  (arbitrary order and MRCC methods)
  Frank Weinhold                                : gennbo (NPA and NBO analysis)           
  Simon Mueller                                 : openCOSMO-RS                            
  Christopher J. Cramer and Donald G. Truhlar   : smd solvation model                     
  S Lehtola, MJT Oliveira, MAL Marques          : LibXC Library                           
  Liviu Ungur et al                             : ANISO software                          


 Your calculation uses the libint2 library for the computation of 2-el integrals
 For citations please refer to: http://libint.valeyev.net

 Your ORCA version has been built with support for libXC version: 7.0.0
 For citations please refer to: https://libxc.gitlab.io

 This ORCA versions uses:
   CBLAS   interface :  Fast vector & matrix operations
   LAPACKE interface :  Fast linear algebra routines
   SCALAPACK package :  Parallel linear algebra routines
   Shared memory     :  Shared parallel matrices
   BLAS/LAPACK       :  OpenBLAS 0.3.29  USE64BITINT DYNAMIC_ARCH NO_AFFINITY Zen SINGLE_THREADED
        Core in use  :  Zen
   Copyright (c) 2011-2014, The OpenBLAS Project


  ***********************************
  * Starting time: Thu Apr 23 11:46:17 2026
  * Host name:     vmi3233575
  * Process ID:    1175883
  * Working dir.:  /root/b12_scan/jobs/double_ring_nn1.60
  ***********************************

NOTE: MaxCore=2500 MB was set to SCF,MP2,MDCI,CIPSI,MRCI,RASCI and CIS
      => If you want to overwrite this, your respective input block should be placed after the MaxCore statement
Your calculation utilizes the atom-pairwise dispersion correction
with the Becke-Johnson damping scheme (D3BJ)


================================================================================

----- Orbital basis set information -----
Your calculation utilizes the basis: def2-SVP
   F. Weigend and R. Ahlrichs, Phys. Chem. Chem. Phys. 7, 3297 (2005).

----- AuxJ basis set information -----
Your calculation utilizes the auxiliary basis: def2/J
   H-Rn: F. Weigend, Phys. Chem. Chem. Phys. 8, 1057 (2006).
   Fr-Lr: K. Eichkorn, F. Weigend, O. Treutler, R. Ahlrichs; Theor. Chem. Acc. 97, 119 (1997).

================================================================================
                                        WARNINGS
                       Please study these warnings very carefully!
================================================================================


WARNING: Geometry Optimization
  ===> : Switching off AutoStart
         For restart on a previous wavefunction, please use MOREAD

================================================================================
                                       INPUT FILE
================================================================================
NAME = double_ring_nn1.60.inp
|  1> ! BP86 def2-SVP def2/J RI Opt TightSCF D3BJ
|  2> ! SlowConv
|  3> 
|  4> %pal nprocs 8 end
|  5> %maxcore 2500
|  6> 
|  7> %geom
|  8>   MaxIter 300
|  9> end
| 10> 
| 11> * xyz 0 1
| 12> B     -0.80000000     -0.00000000      0.00000000
| 13> B     -1.80000000      1.73205081      0.00000000
| 14> B     -3.80000000      1.73205081      0.00000000
| 15> B     -4.80000000      0.00000000      0.00000000
| 16> B     -3.80000000     -1.73205081      0.00000000
| 17> B     -1.80000000     -1.73205081      0.00000000
| 18> B      4.80000000     -0.00000000      0.00000000
| 19> B      3.80000000      1.73205081      0.00000000
| 20> B      1.80000000      1.73205081      0.00000000
| 21> B      0.80000000      0.00000000      0.00000000
| 22> B      1.80000000     -1.73205081      0.00000000
| 23> B      3.80000000     -1.73205081      0.00000000
| 24> *
| 25> 
| 26>                          ****END OF INPUT****
================================================================================

                       *****************************
                       * Geometry Optimization Run *
                       *****************************

Geometry optimization settings:
Update method            Update   .... BFGS
Choice of coordinates    CoordSys .... (2022) Redundant Internals
Initial Hessian          InHess   .... Almloef's Model
Max. no of cycles        MaxIter  .... 300

Convergence Tolerances:
Energy Change            TolE     ....  5.0000e-06 Eh
Max. Gradient            TolMAXG  ....  3.0000e-04 Eh/bohr
RMS Gradient             TolRMSG  ....  1.0000e-04 Eh/bohr
Max. Displacement        TolMAXD  ....  4.0000e-03 bohr
RMS Displacement         TolRMSD  ....  2.0000e-03 bohr
Strict Convergence                .... False

------------------------------------------------------------------------------
                        ORCA OPTIMIZATION COORDINATE SETUP
------------------------------------------------------------------------------

The optimization will be done in redundant internal coordinates (2022)
Making redundant internal coordinates   ...  (2022 redundants) done
Evaluating the initial hessian          ...  (Almloef) done
Evaluating the coordinates              ...  done
Calculating the B-matrix                .... done
Calculating the G-matrix                .... done
The number of degrees of freedom        ....   49

    -----------------------------------------------------------------
                    Redundant Internal Coordinates


    -----------------------------------------------------------------
         Definition                    Initial Value    Approx d2E/dq
    -----------------------------------------------------------------
      1. B(B   1,B   0)                  2.0000         0.089157   
      2. B(B   2,B   1)                  2.0000         0.089157   
      3. B(B   3,B   2)                  2.0000         0.089157   
      4. B(B   4,B   3)                  2.0000         0.089157   
      5. B(B   5,B   4)                  2.0000         0.089157   
      6. B(B   5,B   0)                  2.0000         0.089157   
      7. B(B   7,B   6)                  2.0000         0.089157   
      8. B(B   8,B   7)                  2.0000         0.089157   
      9. B(B   9,B   8)                  2.0000         0.089157   
     10. B(B   9,B   0)                  1.6000         0.387554   
     11. B(B  10,B   9)                  2.0000         0.089157   
     12. B(B  11,B  10)                  2.0000         0.089157   
     13. B(B  11,B   6)                  2.0000         0.089157   
     14. A(B   1,B   0,B   9)          120.0000         0.297719   
     15. A(B   5,B   0,B   9)          120.0000         0.297719   
     16. A(B   1,B   0,B   5)          120.0000         0.238665   
     17. A(B   0,B   1,B   2)          120.0000         0.238665   
     18. A(B   1,B   2,B   3)          120.0000         0.238665   
     19. A(B   2,B   3,B   4)          120.0000         0.238665   
     20. A(B   3,B   4,B   5)          120.0000         0.238665   
     21. A(B   0,B   5,B   4)          120.0000         0.238665   
     22. A(B   7,B   6,B  11)          120.0000         0.238665   
     23. A(B   6,B   7,B   8)          120.0000         0.238665   
     24. A(B   7,B   8,B   9)          120.0000         0.238665   
     25. A(B   8,B   9,B  10)          120.0000         0.238665   
     26. A(B   0,B   9,B  10)          120.0000         0.297719   
     27. A(B   0,B   9,B   8)          120.0000         0.297719   
     28. A(B   9,B  10,B  11)          120.0000         0.238665   
     29. A(B   6,B  11,B  10)          120.0000         0.238665   
     30. D(B   2,B   1,B   0,B   9)    180.0000         0.010000   
     31. D(B   2,B   1,B   0,B   5)      0.0000         0.010000   
     32. D(B   3,B   2,B   1,B   0)      0.0000         0.010000   
     33. D(B   4,B   3,B   2,B   1)      0.0000         0.010000   
     34. D(B   5,B   4,B   3,B   2)      0.0000         0.010000   
     35. D(B   4,B   5,B   0,B   9)    180.0000         0.010000   
     36. D(B   4,B   5,B   0,B   1)      0.0000         0.010000   
     37. D(B   0,B   5,B   4,B   3)      0.0000         0.010000   
     38. D(B   8,B   7,B   6,B  11)      0.0000         0.010000   
     39. D(B   9,B   8,B   7,B   6)      0.0000         0.010000   
     40. D(B  10,B   9,B   0,B   5)      0.0000         0.010000   
     41. D(B  10,B   9,B   0,B   1)    180.0000         0.010000   
     42. D(B   8,B   9,B   0,B   5)    180.0000         0.010000   
     43. D(B   0,B   9,B   8,B   7)    180.0000         0.010000   
     44. D(B   8,B   9,B   0,B   1)      0.0000         0.010000   
     45. D(B  10,B   9,B   8,B   7)      0.0000         0.010000   
     46. D(B  11,B  10,B   9,B   8)      0.0000         0.010000   
     47. D(B  11,B  10,B   9,B   0)    180.0000         0.010000   
     48. D(B   6,B  11,B  10,B   9)      0.0000         0.010000   
     49. D(B  10,B  11,B   6,B   7)      0.0000         0.010000   
    -----------------------------------------------------------------

Number of atoms                         .... 12
Number of degrees of freedom            .... 49


         *************************************************************
         *                GEOMETRY OPTIMIZATION CYCLE   1            *
         *************************************************************
---------------------------------
CARTESIAN COORDINATES (ANGSTROEM)
---------------------------------
  B     -0.800000   -0.000000    0.000000
  B     -1.800000    1.732051    0.000000
  B     -3.800000    1.732051    0.000000
  B     -4.800000    0.000000    0.000000
  B     -3.800000   -1.732051    0.000000
  B     -1.800000   -1.732051    0.000000
  B      4.800000   -0.000000    0.000000
  B      3.800000    1.732051    0.000000
  B      1.800000    1.732051    0.000000
  B      0.800000    0.000000    0.000000
  B      1.800000   -1.732051    0.000000
  B      3.800000   -1.732051    0.000000

----------------------------
CARTESIAN COORDINATES (A.U.)
----------------------------
  NO LB      ZA    FRAG     MASS         X           Y           Z
   0 B     5.0000    0    10.810   -1.511781   -0.000000    0.000000
   1 B     5.0000    0    10.810   -3.401507    3.273102    0.000000
   2 B     5.0000    0    10.810   -7.180959    3.273102    0.000000
   3 B     5.0000    0    10.810   -9.070685    0.000000    0.000000
   4 B     5.0000    0    10.810   -7.180959   -3.273102    0.000000
   5 B     5.0000    0    10.810   -3.401507   -3.273102    0.000000
   6 B     5.0000    0    10.810    9.070685   -0.000000    0.000000
   7 B     5.0000    0    10.810    7.180959    3.273102    0.000000
   8 B     5.0000    0    10.810    3.401507    3.273102    0.000000
   9 B     5.0000    0    10.810    1.511781    0.000000    0.000000
  10 B     5.0000    0    10.810    3.401507   -3.273102    0.000000
  11 B     5.0000    0    10.810    7.180959   -3.273102    0.000000

--------------------------------
INTERNAL COORDINATES (ANGSTROEM)
--------------------------------
 B      0   0   0     0.000000000000     0.00000000     0.00000000
 B      1   0   0     2.000000002105     0.00000000     0.00000000
 B      2   1   0     2.000000000000   119.99999997     0.00000000
 B      3   2   1     2.000000002105   119.99999997     0.00000000
 B      4   3   2     2.000000002105   120.00000007     0.00000000
 B      5   4   3     2.000000000000   119.99999997     0.00000000
 B      1   2   3     5.600000000000   119.99999997   180.00000000
 B      7   1   2     2.000000002105    60.00000003     0.00000000
 B      8   7   1     2.000000000000   119.99999997     0.00000000
 B      1   2   3     1.600000000000   119.99999997   180.00000000
 B     10   1   2     2.000000002105   119.99999997   180.00000000
 B     11  10   1     2.000000000000   119.99999997   180.00000000

---------------------------
INTERNAL COORDINATES (A.U.)
---------------------------
 B      0   0   0     0.000000000000     0.00000000     0.00000000
 B      1   0   0     3.779452271821     0.00000000     0.00000000
 B      2   1   0     3.779452267843   119.99999997     0.00000000
 B      3   2   1     3.779452271821   119.99999997     0.00000000
 B      4   3   2     3.779452271821   120.00000007     0.00000000
 B      5   4   3     3.779452267843   119.99999997     0.00000000
 B      1   2   3    10.582466349959   119.99999997   180.00000000
 B      7   1   2     3.779452271821    60.00000003     0.00000000
 B      8   7   1     3.779452267843   119.99999997     0.00000000
 B      1   2   3     3.023561814274   119.99999997   180.00000000
 B     10   1   2     3.779452271821   119.99999997   180.00000000
 B     11  10   1     3.779452267843   119.99999997   180.00000000

---------------------
BASIS SET INFORMATION
---------------------
There are 1 groups of distinct atoms

 Group   1 Type B   : 7s4p1d contracted to 3s2p1d pattern {511/31/1}

Atom   0B    basis set group =>   1
Atom   1B    basis set group =>   1
Atom   2B    basis set group =>   1
Atom   3B    basis set group =>   1
Atom   4B    basis set group =>   1
Atom   5B    basis set group =>   1
Atom   6B    basis set group =>   1
Atom   7B    basis set group =>   1
Atom   8B    basis set group =>   1
Atom   9B    basis set group =>   1
Atom  10B    basis set group =>   1
Atom  11B    basis set group =>   1
---------------------------------
AUXILIARY/J BASIS SET INFORMATION
---------------------------------
There are 1 groups of distinct atoms

 Group   1 Type B   : 12s5p4d2f1g contracted to 6s4p3d1f1g pattern {711111/2111/211/2/1}

Atom   0B    basis set group =>   1
Atom   1B    basis set group =>   1
Atom   2B    basis set group =>   1
Atom   3B    basis set group =>   1
Atom   4B    basis set group =>   1
Atom   5B    basis set group =>   1
Atom   6B    basis set group =>   1
Atom   7B    basis set group =>   1
Atom   8B    basis set group =>   1
Atom   9B    basis set group =>   1
Atom  10B    basis set group =>   1
Atom  11B    basis set group =>   1


           ************************************************************
           *        Program running with 8 parallel MPI-processes     *
           *              working on a common directory               *
           ************************************************************
------------------------------------------------------------------------------
                             ORCA STARTUP CALCULATIONS
                           -- RI-GTO INTEGRALS CHOSEN --
------------------------------------------------------------------------------
------------------------------------------------------------------------------
                   ___                                                        
                  /   \      - P O W E R E D   B Y -                         
                 /     \                                                     
                 |  |  |   _    _      __       _____    __    __             
                 |  |  |  | |  | |    /  \     |  _  \  |  |  /  |          
                  \  \/   | |  | |   /    \    | | | |  |  | /  /          
                 / \  \   | |__| |  /  /\  \   | |_| |  |  |/  /          
                |  |  |   |  __  | /  /__\  \  |    /   |      \           
                |  |  |   | |  | | |   __   |  |    \   |  |\   \          
                \     /   | |  | | |  |  |  |  | |\  \  |  | \   \       
                 \___/    |_|  |_| |__|  |__|  |_| \__\ |__|  \__/        
                                                                              
                      - O R C A' S   B I G   F R I E N D -                    
                                      &                                       
                       - I N T E G R A L  F E E D E R -                       
                                                                              
 v1 FN, 2020, v2 2021, v3 2022-2024                                           
------------------------------------------------------------------------------


----------------------
SHARK INTEGRAL PACKAGE
----------------------

Number of atoms                             ...     12
Number of basis functions                   ...    168
Number of shells                            ...     72
Maximum angular momentum                    ...      2
Integral batch strategy                     ... SHARK/LIBINT Hybrid
RI-J (if used) integral strategy            ... SPLIT-RIJ (Revised 2003 algorithm where possible)
Printlevel                                  ...      1
Contraction scheme used                     ... SEGMENTED contraction
Prescreening option                         ... SCHWARTZ
   Thresh                                   ... 2.500e-11
   Tcut                                     ... 2.500e-12
   Tpresel                                  ... 2.500e-12 
Coulomb Range Separation                    ... NOT USED
Exchange Range Separation                   ... NOT USED
Multipole approximations                    ... NOT USED
Finite Nucleus Model                        ... NOT USED
CABS basis                                  ... NOT available
Auxiliary Coulomb fitting basis             ... AVAILABLE
   # of basis functions in Aux-J            ...    588
   # of shells in Aux-J                     ...    180
   Maximum angular momentum in Aux-J        ...      4
Auxiliary J/K fitting basis                 ... NOT available
Auxiliary Correlation fitting basis         ... NOT available
Auxiliary 'external' fitting basis          ... NOT available

Checking pre-screening integrals            ... done (  0.0 sec) Dimension = 72
   => SHARK Basis and OBASIS are compatible. Storing Pre-screening
Shell pair information
Shell pair cut-off parameter TPreSel        ...   2.5e-12
Total number of shell pairs                 ...      2628
Shell pairs after pre-screening             ...      2326
Total number of primitive shell pairs       ...     10596
Primitive shell pairs kept                  ...      6378
          la=0 lb=0:    558 shell pairs
          la=1 lb=0:    798 shell pairs
          la=1 lb=1:    291 shell pairs
          la=2 lb=0:    356 shell pairs
          la=2 lb=1:    262 shell pairs
          la=2 lb=2:     61 shell pairs

Checking whether 4 symmetric matrices of dimension 168 fit in memory
:Max Core in MB      =   2500.00
 MB in use           =      6.42
 MB left             =   2493.58
 MB needed           =      0.43
 Data fit in memory  = YES
Calculating RI/J V-Matrix + Cholesky decomp.... done (  0.0 sec)
Calculating Nuclear repulsion               ... done (  0.0 sec) ENN=    237.692807167638 Eh

Diagonalization of the overlap matrix:
Smallest eigenvalue                        ... 1.018e-03
Time for diagonalization                   ...    0.004 sec
Threshold for overlap eigenvalues          ... 1.000e-07
Number of eigenvalues below threshold      ... 0
Time for construction of square roots      ...    0.006 sec
Total time needed                          ...    0.012 sec

-------------------
DFT GRID GENERATION
-------------------

General Integration Accuracy     IntAcc      ... 4.388
Radial Grid Type                 RadialGrid  ... OptM3 with GC (2021)
Angular Grid (max. ang.)         AngularGrid ... 4 (Lebedev-302)
Angular grid pruning method      GridPruning ... 4 (adaptive)
Weight generation scheme         WeightScheme... mBecke (2022)
Basis function cutoff            BFCut       ... 1.0000e-11
Integration weight cutoff        WCut        ... 1.0000e-14
Partially contracted basis set               ... off
Rotationally invariant grid construction     ... off
Angular grids for H and He will be reduced by one unit

Total number of grid points                  ...    72532
Total number of batches                      ...     1142
Average number of points per batch           ...       63
Average number of grid points per atom       ...     6044
Grids setup in   0.9 sec
Initializing property integral containers    ... done (  0.0 sec)

SHARK setup successfully completed in   1.1 seconds

Maximum memory used throughout the entire STARTUP-calculation: 19.6 MB


           ************************************************************
           *        Program running with 8 parallel MPI-processes     *
           *              working on a common directory               *
           ************************************************************
-------------------------------------------------------------------------------
                                 ORCA GUESS
                   Start orbitals & Density for SCF / CASSCF
-------------------------------------------------------------------------------

------------
SCF SETTINGS
------------
Hamiltonian:
 Density Functional     Method          .... DFT(GTOs)
 Exchange Functional    Exchange        .... B88
   X-Alpha parameter    XAlpha          ....  0.666667
   Becke's b parameter  XBeta           ....  0.004200
 Correlation Functional Correlation     .... P86
 LDA part of GGA corr.  LDAOpt          .... PW91-LDA
 Gradients option       PostSCFGGA      .... off
   NL short-range parameter             ....  4.400000
 RI-approximation to the Coulomb term is turned on
   Number of AuxJ basis functions       .... 588


General Settings:
 Integral files         IntName         .... double_ring_nn1.60
 Hartree-Fock type      HFTyp           .... RHF
 Total Charge           Charge          ....    0
 Multiplicity           Mult            ....    1
 Number of Electrons    NEL             ....   60
 Basis Dimension        Dim             ....  168
 Nuclear Repulsion      ENuc            ....    237.6928071676 Eh

Convergence Acceleration:
 AO-DIIS                CNVDIIS         .... on
   Start iteration      DIISMaxIt       ....     0
   Startup error        DIISStart       ....  0.200000
   # of expansion vecs  DIISMaxEq       ....     5
   Bias factor          DIISBfac        ....   1.050
   Max. coefficient     DIISMaxC        ....  10.000
 MO-DIIS                CNVKDIIS        .... off
 Trust-Rad. Augm. Hess. CNVTRAH         .... auto
   Auto Start mean grad. ratio tolernc. ....  1.125000
   Auto Start start iteration           ....    50
   Auto Start num. interpolation iter.  ....    10
   Max. Number of Micro iterations      ....    24
   Max. Number of Macro iterations      .... Maxiter - #DIIS iter
   Number of Davidson start vectors     ....     2
   Converg. threshold    (grad. norm)   ....   1.000e-05
   Grad. Scal. Fac. for Micro threshold ....   0.100
   Minimum threshold for Micro iter.    ....   1.000e-02
   NR start threshold (gradient norm)   ....   1.000e-04
   Initial trust radius                 ....   0.400
   Minimum AH scaling param. (alpha)    ....   1.000
   Maximum AH scaling param. (alpha)    .... 1000.000
   Quad. conv. algorithm                .... NR
   White noise on init. David. guess    .... on
   Maximum white noise                  ....   0.010
   Pseudo random numbers                .... off
   Inactive MOs                         .... canonical
   Orbital update algorithm             .... Taylor
   Preconditioner                       .... Diag
   Full preconditioner red. dimension   ....   250
 SOSCF                 CNVSOSCF           .... on
   Start iteration     SOSCFMaxIt         ....   150
   Startup grad/error  SOSCFStart         ....  0.001000
   Hessian update      SOSCFHessUp        .... L-BFGS
   Autom. constraints  SOSCFAutoConstrain .... off
 Level Shifting         CNVShift        .... on
   Level shift para.    LevelShift      ....    0.2500
   Turn off err/grad.   ShiftErr        ....    0.0000
 Zerner damping         CNVZerner       .... off
 Static damping         CNVDamp         .... on
   Fraction old density DampFac         ....    0.8500
   Max. Damping (<1)    DampMax         ....    0.9800
   Min. Damping (>=0)   DampMin         ....    0.0000
   Turn off err/grad.   DampErr         ....    0.0300

SCF Procedure:
 Maximum # iterations   MaxIter         ....   125
 SCF integral mode      SCFMode         .... Direct
   Integral package                     .... SHARK and LIBINT hybrid scheme
 Reset frequency        DirectResetFreq ....    20
 Integral Threshold     Thresh          ....  2.500e-11 Eh
 Primitive CutOff       TCut            ....  2.500e-12 Eh

Convergence Tolerance:
 Convergence Check Mode ConvCheckMode   .... Total+1el-Energy
 Convergence forced     ConvForced      .... 0
 Energy Change          TolE            ....  1.000e-08 Eh
 1-El. energy change                    ....  1.000e-05 Eh
 Orbital Gradient       TolG            ....  1.000e-05
 Orbital Rotation angle TolX            ....  1.000e-05
 DIIS Error             TolErr          ....  5.000e-07

------------------------------
INITIAL GUESS: MODEL POTENTIAL
------------------------------
Loading Hartree-Fock densities                     ... done
Calculating cut-offs                               ... done
Initializing the effective Hamiltonian             ... done
Setting up the integral package (SHARK)            ... done
Starting the Coulomb interaction                   ... done (   0.0 sec)
Making the grid                                    ... done (   0.2 sec)
Mapping shells                                     ... done
Starting the XC term evaluation                    ... done (   0.0 sec)
  promolecular density results
     # of electrons  =     59.999619734
     EX              =    -44.804663630
     EC              =     -1.809942517
     EX+EC           =    -46.614606148
Transforming the Hamiltonian                       ... done (   0.0 sec)
Diagonalizing the Hamiltonian                      ... done (   0.0 sec)
Back transforming the eigenvectors                 ... done (   0.0 sec)
Now organizing SCF variables                       ... done
                      ------------------
                      INITIAL GUESS DONE (   0.3 sec)
                      ------------------
             **** ENERGY FILE WAS UPDATED (double_ring_nn1.60.en.tmp) ****
Finished Guess after   0.7 sec
Maximum memory used throughout the entire GUESS-calculation: 9.2 MB


           ************************************************************
           *        Program running with 8 parallel MPI-processes     *
           *              working on a common directory               *
           ************************************************************

-------------------------------------------------------------------------------------------
                                      ORCA LEAN-SCF
                              memory conserving SCF solver
-------------------------------------------------------------------------------------------

----------------------------------------D-I-I-S--------------------------------------------
Iteration    Energy (Eh)           Delta-E    RMSDP     MaxDP     DIISErr   Damp  Time(sec)
-------------------------------------------------------------------------------------------
               ***  Starting incremental Fock matrix formation  ***
    1    -296.4104832245834587     0.00e+00  9.11e-03  6.80e-02  1.95e-01  0.850   0.3
Warning: op=0 Small HOMO/LUMO gap (  -0.075) - skipping pre-diagonalization
         Will do a full diagonalization
    2    -296.5811819445505080    -1.71e-01  9.55e-03  5.83e-02  1.18e-01  0.850   0.3
                               ***Turning on AO-DIIS***
    3    -296.6418196517340675    -6.06e-02  5.40e-03  3.85e-02  4.29e-02  0.850   0.3
    4    -296.6527225825656160    -1.09e-02  3.20e-03  2.39e-02  1.77e-02  0.850   0.3
    5    -296.6638349608541603    -1.11e-02  1.37e-02  9.52e-02  1.92e-02  0.000   0.3
    6    -296.7365993787141178    -7.28e-02  4.73e-03  3.03e-02  5.08e-02  0.000   0.2
    7    -296.7748386993803251    -3.82e-02  4.13e-04  2.60e-03  2.58e-02  0.850   0.2
    8    -296.7766469160831093    -1.81e-03  4.31e-03  2.79e-02  2.37e-02  0.000   0.2
    9    -296.7874502341874177    -1.08e-02  1.83e-03  1.36e-02  1.14e-02  0.000   0.2
   10    -296.7900327145038091    -2.58e-03  1.38e-03  9.72e-03  4.65e-03  0.000   0.2
   11    -296.7907234516159178    -6.91e-04  8.71e-04  6.60e-03  2.22e-03  0.000   0.3
   12    -296.7910006422919196    -2.77e-04  5.31e-04  3.64e-03  1.20e-03  0.000   0.2
                              *** Initializing SOSCF ***
---------------------------------------S-O-S-C-F--------------------------------------
Iteration    Energy (Eh)           Delta-E    RMSDP     MaxDP     MaxGrad    Time(sec)
--------------------------------------------------------------------------------------
   13    -296.7910976168839170    -9.70e-05  3.56e-04  1.52e-03  9.81e-04     0.4
               *** Restarting incremental Fock matrix formation ***
   14    -296.7911495199863339    -5.19e-05  5.01e-04  2.35e-03  1.11e-03     0.3
   15    -296.7911585592052006    -9.04e-06  5.80e-04  3.74e-03  1.73e-03     0.3
   16    -296.7912270717212095    -6.85e-05  4.27e-04  2.95e-03  5.75e-04     0.3
   17    -296.7912179687200478     9.10e-06  2.13e-04  1.62e-03  9.55e-04     0.3
   18    -296.7912423721696769    -2.44e-05  1.15e-04  7.81e-04  2.25e-04     0.2
   19    -296.7912425068037692    -1.35e-07  6.94e-05  5.27e-04  2.36e-04     0.3
   20    -296.7912446744925319    -2.17e-06  5.65e-05  1.67e-04  5.08e-05     0.3
   21    -296.7912450250352094    -3.51e-07  4.30e-05  1.24e-04  4.20e-05     0.3
   22    -296.7912451001113823    -7.51e-08  5.04e-05  1.40e-04  3.92e-05     0.2
   23    -296.7912449333144878     1.67e-07  3.86e-05  1.11e-04  1.02e-04     0.3
   24    -296.7912451420974094    -2.09e-07  4.34e-06  1.23e-05  1.15e-05     0.2
   25    -296.7912451460414331    -3.94e-09  1.04e-05  2.85e-05  8.06e-06     0.2
                 **** Energy Check signals convergence ****

               *****************************************************
               *                     SUCCESS                       *
               *           SCF CONVERGED AFTER  25 CYCLES          *
               *****************************************************

             **** ENERGY FILE WAS UPDATED (double_ring_nn1.60.en.tmp) ****

----------------
TOTAL SCF ENERGY
----------------

Total Energy       :       -296.79124515263049 Eh           -8076.10036 eV

Components:
Nuclear Repulsion  :        237.69280716763828 Eh            6467.95011 eV
Electronic Energy  :       -534.48405232026880 Eh          -14544.05047 eV
One Electron Energy:       -864.40680750667309 Eh          -23521.70505 eV
Two Electron Energy:        329.92275518640429 Eh            8977.65458 eV

Virial components:
Potential Energy   :       -587.42502620934056 Eh          -15984.64761 eV
Kinetic Energy     :        290.63378105671001 Eh            7908.54725 eV
Virial Ratio       :          2.02118633310117

DFT components:
N(Alpha)           :       30.000022242544 electrons
N(Beta)            :       30.000022242544 electrons
N(Total)           :       60.000044485088 electrons
E(X)               :      -45.064907646929 Eh       
E(C)               :       -1.841706825822 Eh       
E(XC)              :      -46.906614472751 Eh       

---------------
SCF CONVERGENCE
---------------

  Last Energy change         ...    3.9440e-09  Tolerance :   1.0000e-08
  Last MAX-Density change    ...    2.8459e-05  Tolerance :   1.0000e-07
  Last RMS-Density change    ...    1.0394e-05  Tolerance :   5.0000e-09
  Last DIIS Error            ...    9.8104e-04  Tolerance :   5.0000e-07
  Last Orbital Gradient      ...    8.0575e-06  Tolerance :   1.0000e-05
  Last Orbital Rotation      ...    2.0245e-04  Tolerance :   1.0000e-05


----------------
ORBITAL ENERGIES
----------------

  NO   OCC          E(Eh)            E(eV) 
   0   2.0000      -6.645133      -180.8233 
   1   2.0000      -6.645128      -180.8231 
   2   2.0000      -6.645126      -180.8231 
   3   2.0000      -6.645122      -180.8230 
   4   2.0000      -6.641598      -180.7271 
   5   2.0000      -6.641577      -180.7265 
   6   2.0000      -6.641553      -180.7259 
   7   2.0000      -6.641546      -180.7257 
   8   2.0000      -6.625739      -180.2955 
   9   2.0000      -6.625738      -180.2955 
  10   2.0000      -6.566653      -178.6877 
  11   2.0000      -6.566218      -178.6759 
  12   2.0000      -0.492134       -13.3916 
  13   2.0000      -0.473525       -12.8853 
  14   2.0000      -0.447210       -12.1692 
  15   2.0000      -0.434708       -11.8290 
  16   2.0000      -0.430365       -11.7108 
  17   2.0000      -0.401362       -10.9216 
  18   2.0000      -0.362854        -9.8738 
  19   2.0000      -0.345845        -9.4109 
  20   2.0000      -0.323360        -8.7991 
  21   2.0000      -0.316031        -8.5996 
  22   2.0000      -0.267116        -7.2686 
  23   2.0000      -0.260907        -7.0996 
  24   2.0000      -0.233274        -6.3477 
  25   2.0000      -0.222573        -6.0565 
  26   2.0000      -0.218717        -5.9516 
  27   2.0000      -0.206863        -5.6290 
  28   2.0000      -0.206491        -5.6189 
  29   2.0000      -0.177754        -4.8369 
  30   0.0000      -0.190804        -5.1920 
  31   0.0000      -0.181692        -4.9441 
  32   0.0000      -0.175156        -4.7662 
  33   0.0000      -0.173785        -4.7289 
  34   0.0000      -0.170146        -4.6299 
  35   0.0000      -0.164662        -4.4807 
  36   0.0000      -0.143597        -3.9075 
  37   0.0000      -0.141512        -3.8507 
  38   0.0000      -0.137354        -3.7376 
  39   0.0000      -0.133060        -3.6207 
  40   0.0000      -0.122067        -3.3216 
*Only the first 10 virtual orbitals were printed.

                    ********************************
                    * MULLIKEN POPULATION ANALYSIS *
                    ********************************

-----------------------
MULLIKEN ATOMIC CHARGES
-----------------------
   0 B :   -0.072162
   1 B :    0.060527
   2 B :   -0.007606
   3 B :   -0.033672
   4 B :   -0.007611
   5 B :    0.060524
   6 B :   -0.033671
   7 B :   -0.007607
   8 B :    0.060527
   9 B :   -0.072161
  10 B :    0.060524
  11 B :   -0.007611
Sum of atomic charges:    0.0000000

--------------------------------
MULLIKEN REDUCED ORBITAL CHARGES
--------------------------------
  0 B s       :     3.051156  s :     3.051156
      pz      :     0.667557  p :     1.999354
      px      :     0.774439
      py      :     0.557358
      dz2     :     0.002314  d :     0.021653
      dxz     :     0.002409
      dyz     :     0.000000
      dx2y2   :     0.008818
      dxy     :     0.008111

  1 B s       :     3.471555  s :     3.471555
      pz      :     0.332487  p :     1.455368
      px      :     0.641073
      py      :     0.481808
      dz2     :     0.001454  d :     0.012550
      dxz     :     0.001999
      dyz     :     0.001032
      dx2y2   :     0.005711
      dxy     :     0.002355

  2 B s       :     3.394962  s :     3.394962
      pz      :     0.527517  p :     1.603319
      px      :     0.623244
      py      :     0.452558
      dz2     :     0.001299  d :     0.009326
      dxz     :     0.000640
      dyz     :     0.000967
      dx2y2   :     0.003436
      dxy     :     0.002984

  3 B s       :     3.349143  s :     3.349143
      pz      :     0.599342  p :     1.675516
      px      :     0.430416
      py      :     0.645758
      dz2     :     0.001525  d :     0.009013
      dxz     :     0.001406
      dyz     :     0.000000
      dx2y2   :     0.002288
      dxy     :     0.003794

  4 B s       :     3.394962  s :     3.394962
      pz      :     0.527519  p :     1.603323
      px      :     0.623245
      py      :     0.452559
      dz2     :     0.001299  d :     0.009326
      dxz     :     0.000640
      dyz     :     0.000967
      dx2y2   :     0.003436
      dxy     :     0.002984

  5 B s       :     3.471557  s :     3.471557
      pz      :     0.332488  p :     1.455369
      px      :     0.641073
      py      :     0.481809
      dz2     :     0.001454  d :     0.012550
      dxz     :     0.001999
      dyz     :     0.001032
      dx2y2   :     0.005711
      dxy     :     0.002355

  6 B s       :     3.349142  s :     3.349142
      pz      :     0.599342  p :     1.675516
      px      :     0.430416
      py      :     0.645758
      dz2     :     0.001525  d :     0.009013
      dxz     :     0.001406
      dyz     :     0.000000
      dx2y2   :     0.002288
      dxy     :     0.003794

  7 B s       :     3.394962  s :     3.394962
      pz      :     0.527517  p :     1.603319
      px      :     0.623244
      py      :     0.452558
      dz2     :     0.001299  d :     0.009326
      dxz     :     0.000640
      dyz     :     0.000967
      dx2y2   :     0.003436
      dxy     :     0.002984

  8 B s       :     3.471555  s :     3.471555
      pz      :     0.332487  p :     1.455367
      px      :     0.641073
      py      :     0.481808
      dz2     :     0.001454  d :     0.012550
      dxz     :     0.001999
      dyz     :     0.001032
      dx2y2   :     0.005711
      dxy     :     0.002355

  9 B s       :     3.051154  s :     3.051154
      pz      :     0.667557  p :     1.999354
      px      :     0.774439
      py      :     0.557358
      dz2     :     0.002314  d :     0.021653
      dxz     :     0.002409
      dyz     :     0.000000
      dx2y2   :     0.008818
      dxy     :     0.008111

 10 B s       :     3.471556  s :     3.471556
      pz      :     0.332488  p :     1.455369
      px      :     0.641073
      py      :     0.481809
      dz2     :     0.001454  d :     0.012550
      dxz     :     0.001999
      dyz     :     0.001032
      dx2y2   :     0.005711
      dxy     :     0.002355

 11 B s       :     3.394962  s :     3.394962
      pz      :     0.527519  p :     1.603323
      px      :     0.623245
      py      :     0.452559
      dz2     :     0.001299  d :     0.009326
      dxz     :     0.000640
      dyz     :     0.000967
      dx2y2   :     0.003436
      dxy     :     0.002984



                     *******************************
                     * LOEWDIN POPULATION ANALYSIS *
                     *******************************

----------------------
LOEWDIN ATOMIC CHARGES
----------------------
   0 B :   -0.230208
   1 B :    0.119791
   2 B :    0.045874
   3 B :   -0.101117
   4 B :    0.045869
   5 B :    0.119790
   6 B :   -0.101116
   7 B :    0.045874
   8 B :    0.119791
   9 B :   -0.230208
  10 B :    0.119790
  11 B :    0.045869

-------------------------------
LOEWDIN REDUCED ORBITAL CHARGES
-------------------------------
  0 B s       :     2.854018  s :     2.854018
      pz      :     0.673586  p :     2.309488
      px      :     0.863337
      py      :     0.772565
      dz2     :     0.006817  d :     0.066701
      dxz     :     0.005245
      dyz     :     0.000000
      dx2y2   :     0.028677
      dxy     :     0.025963

  1 B s       :     3.210306  s :     3.210306
      pz      :     0.328469  p :     1.640682
      px      :     0.774836
      py      :     0.537378
      dz2     :     0.003933  d :     0.029220
      dxz     :     0.003229
      dyz     :     0.001574
      dx2y2   :     0.015671
      dxy     :     0.004815

  2 B s       :     3.163027  s :     3.163027
      pz      :     0.517575  p :     1.765922
      px      :     0.742251
      py      :     0.506096
      dz2     :     0.003474  d :     0.025176
      dxz     :     0.001078
      dyz     :     0.001523
      dx2y2   :     0.011870
      dxy     :     0.007231

  3 B s       :     3.143352  s :     3.143352
      pz      :     0.612140  p :     1.933550
      px      :     0.493350
      py      :     0.828060
      dz2     :     0.004045  d :     0.024214
      dxz     :     0.002132
      dyz     :     0.000000
      dx2y2   :     0.004195
      dxy     :     0.013842

  4 B s       :     3.163028  s :     3.163028
      pz      :     0.517577  p :     1.765926
      px      :     0.742252
      py      :     0.506097
      dz2     :     0.003474  d :     0.025176
      dxz     :     0.001078
      dyz     :     0.001523
      dx2y2   :     0.011870
      dxy     :     0.007231

  5 B s       :     3.210306  s :     3.210306
      pz      :     0.328469  p :     1.640684
      px      :     0.774836
      py      :     0.537378
      dz2     :     0.003933  d :     0.029220
      dxz     :     0.003229
      dyz     :     0.001574
      dx2y2   :     0.015671
      dxy     :     0.004815

  6 B s       :     3.143352  s :     3.143352
      pz      :     0.612140  p :     1.933550
      px      :     0.493350
      py      :     0.828060
      dz2     :     0.004045  d :     0.024214
      dxz     :     0.002132
      dyz     :     0.000000
      dx2y2   :     0.004195
      dxy     :     0.013842

  7 B s       :     3.163027  s :     3.163027
      pz      :     0.517575  p :     1.765922
      px      :     0.742251
      py      :     0.506096
      dz2     :     0.003474  d :     0.025176
      dxz     :     0.001078
      dyz     :     0.001523
      dx2y2   :     0.011870
      dxy     :     0.007231

  8 B s       :     3.210306  s :     3.210306
      pz      :     0.328469  p :     1.640682
      px      :     0.774836
      py      :     0.537378
      dz2     :     0.003933  d :     0.029220
      dxz     :     0.003229
      dyz     :     0.001574
      dx2y2   :     0.015671
      dxy     :     0.004815

  9 B s       :     2.854018  s :     2.854018
      pz      :     0.673586  p :     2.309488
      px      :     0.863337
      py      :     0.772565
      dz2     :     0.006817  d :     0.066701
      dxz     :     0.005245
      dyz     :     0.000000
      dx2y2   :     0.028677
      dxy     :     0.025963

 10 B s       :     3.210306  s :     3.210306
      pz      :     0.328469  p :     1.640684
      px      :     0.774836
      py      :     0.537378
      dz2     :     0.003933  d :     0.029220
      dxz     :     0.003229
      dyz     :     0.001574
      dx2y2   :     0.015671
      dxy     :     0.004815

 11 B s       :     3.163028  s :     3.163028
      pz      :     0.517577  p :     1.765926
      px      :     0.742252
      py      :     0.506097
      dz2     :     0.003474  d :     0.025176
      dxz     :     0.001078
      dyz     :     0.001523
      dx2y2   :     0.011870
      dxy     :     0.007231



                      *****************************
                      * MAYER POPULATION ANALYSIS *
                      *****************************

  NA   - Mulliken gross atomic population
  ZA   - Total nuclear charge
  QA   - Mulliken gross atomic charge
  VA   - Mayer's total valence
  BVA  - Mayer's bonded valence
  FA   - Mayer's free valence

  ATOM       NA         ZA         QA         VA         BVA        FA
  0 B      5.0722     5.0000    -0.0722     3.7061     3.7061     0.0000
  1 B      4.9395     5.0000     0.0605     2.8010     2.8010     0.0000
  2 B      5.0076     5.0000    -0.0076     3.0429     3.0429     0.0000
  3 B      5.0337     5.0000    -0.0337     3.2286     3.2286     0.0000
  4 B      5.0076     5.0000    -0.0076     3.0429     3.0429    -0.0000
  5 B      4.9395     5.0000     0.0605     2.8010     2.8010     0.0000
  6 B      5.0337     5.0000    -0.0337     3.2286     3.2286    -0.0000
  7 B      5.0076     5.0000    -0.0076     3.0429     3.0429    -0.0000
  8 B      4.9395     5.0000     0.0605     2.8010     2.8010    -0.0000
  9 B      5.0722     5.0000    -0.0722     3.7061     3.7061     0.0000
 10 B      4.9395     5.0000     0.0605     2.8010     2.8010     0.0000
 11 B      5.0076     5.0000    -0.0076     3.0429     3.0429    -0.0000

  Mayer bond orders larger than 0.100000
B(  0-B ,  1-B ) :   0.8749 B(  0-B ,  2-B ) :   0.1263 B(  0-B ,  4-B ) :   0.1263 
B(  0-B ,  5-B ) :   0.8749 B(  0-B ,  9-B ) :   1.3461 B(  1-B ,  2-B ) :   0.9159 
B(  1-B ,  3-B ) :   0.2670 B(  1-B ,  4-B ) :   0.2078 B(  1-B ,  5-B ) :   0.2854 
B(  2-B ,  3-B ) :   1.2097 B(  2-B ,  4-B ) :   0.4271 B(  2-B ,  5-B ) :   0.2078 
B(  3-B ,  4-B ) :   1.2097 B(  3-B ,  5-B ) :   0.2670 B(  4-B ,  5-B ) :   0.9159 
B(  6-B ,  7-B ) :   1.2097 B(  6-B ,  8-B ) :   0.2670 B(  6-B , 10-B ) :   0.2670 
B(  6-B , 11-B ) :   1.2097 B(  7-B ,  8-B ) :   0.9159 B(  7-B ,  9-B ) :   0.1263 
B(  7-B , 10-B ) :   0.2078 B(  7-B , 11-B ) :   0.4271 B(  8-B ,  9-B ) :   0.8749 
B(  8-B , 10-B ) :   0.2854 B(  8-B , 11-B ) :   0.2078 B(  9-B , 10-B ) :   0.8749 
B(  9-B , 11-B ) :   0.1263 B( 10-B , 11-B ) :   0.9159 

-------
TIMINGS
-------

Total SCF time: 0 days 0 hours 0 min 7 sec 

Total time                  ....       7.376 sec
Sum of individual times     ....       7.059 sec  ( 95.7%)

SCF preparation             ....       0.534 sec  (  7.2%)
Fock matrix formation       ....       5.435 sec  ( 73.7%)
  Startup                   ....       0.013 sec  (  0.2% of F)
  Split-RI-J                ....       1.889 sec  ( 34.8% of F)
  XC integration            ....       3.388 sec  ( 62.3% of F)
    XC Preparation          ....       0.000 sec  (  0.0% of XC)
    Basis function eval.    ....       0.786 sec  ( 23.2% of XC)
    Density eval.           ....       0.430 sec  ( 12.7% of XC)
    XC-Functional eval.     ....       0.138 sec  (  4.1% of XC)
    XC-Potential eval.      ....       0.468 sec  ( 13.8% of XC)
Diagonalization             ....       0.000 sec  (  0.0%)
Density matrix formation    ....       0.123 sec  (  1.7%)
Total Energy calculation    ....       0.087 sec  (  1.2%)
Population analysis         ....       0.034 sec  (  0.5%)
Orbital Transformation      ....       0.031 sec  (  0.4%)
Orbital Orthonormalization  ....       0.000 sec  (  0.0%)
DIIS solution               ....       0.377 sec  (  5.1%)
SOSCF solution              ....       0.437 sec  (  5.9%)
Finished LeanSCF after   7.4 sec

Maximum memory used throughout the entire LEANSCF-calculation: 9.2 MB


-------------------------------------------------------------------------------
                          DFT DISPERSION CORRECTION                            
                                                                               
                              DFTD3 V3.1  Rev 1                                
                          USING Becke-Johnson damping                          
-------------------------------------------------------------------------------
The BP86 functional is recognized
Active option DFTDOPT                   ...         4   

molecular C6(AA) [au] = 9807.104519 


            DFT-D V3
 parameters
 s6 scaling factor         :     1.0000 
 a1 scaling factor         :     0.3946 
 s8 scaling factor         :     3.2822 
 a2 scaling factor         :     4.8516 
 ad hoc parameters k1-k3   :    16.0000     1.3333    -4.0000 

 Edisp/kcal,au: -27.433347980457  -0.043717818118 
 E6   /kcal   :  -8.001331404 
 E8   /kcal   : -19.432016576 
 % E8         :  70.833558448 

-------------------------   ----------------
Dispersion correction           -0.043717818
-------------------------   ----------------


-------------------------   --------------------
FINAL SINGLE POINT ENERGY      -296.834962970748
-------------------------   --------------------



           ************************************************************
           *        Program running with 8 parallel MPI-processes     *
           *              working on a common directory               *
           ************************************************************
------------------------------------------------------------------------------
                         ORCA SCF GRADIENT CALCULATION
------------------------------------------------------------------------------

Nuc. rep. gradient        (SHARK) ... done (  0.0 sec)
HCore & Overlap gradient  (SHARK) ... done (  0.0 sec)
Split-RIJ-J gradient      (SHARK) ... done (  0.3 sec)
XC gradient                       ... done (  0.7 sec)
Dispersion correction             ... done (  0.1 sec)

-------------------
DISPERSION GRADIENT
-------------------

   1   B   :   -0.003130864   -0.000000000    0.000000000
   2   B   :   -0.000681358   -0.002068663    0.000000000
   3   B   :    0.000655882   -0.000736538    0.000000000
   4   B   :    0.000860454    0.000000000    0.000000000
   5   B   :    0.000655882    0.000736538    0.000000000
   6   B   :   -0.000681358    0.002068663    0.000000000
   7   B   :   -0.000860454    0.000000000    0.000000000
   8   B   :   -0.000655882   -0.000736538    0.000000000
   9   B   :    0.000681358   -0.002068663    0.000000000
  10   B   :    0.003130864    0.000000000    0.000000000
  11   B   :    0.000681358    0.002068663    0.000000000
  12   B   :   -0.000655882    0.000736538    0.000000000

Difference to translation invariance:
           :    0.0000000000    0.0000000000    0.0000000000

Difference to rotation invariance:
           :    0.0000000000    0.0000000000    0.0000000000

Norm of the Dispersion gradient    ...    0.0066295182
RMS gradient                       ...    0.0011049197
MAX gradient                       ...    0.0031308640

------------------
CARTESIAN GRADIENT
------------------

   1   B   :    0.047354086    0.000000025    0.000000001
   2   B   :    0.038824772    0.054621434   -0.000000001
   3   B   :   -0.024193458    0.081372909    0.000000000
   4   B   :   -0.071835656    0.000000073   -0.000000000
   5   B   :   -0.024193567   -0.081372962   -0.000000000
   6   B   :    0.038824922   -0.054621475   -0.000000000
   7   B   :    0.071835657    0.000000073    0.000000000
   8   B   :    0.024193458    0.081372908    0.000000000
   9   B   :   -0.038824778    0.054621431    0.000000001
  10   B   :   -0.047354084    0.000000024   -0.000000000
  11   B   :   -0.038824918   -0.054621479   -0.000000000
  12   B   :    0.024193566   -0.081372961   -0.000000001

Difference to translation invariance:
           :    0.0000000000    0.0000000000   -0.0000000000

Difference to rotation invariance:
           :    0.0000000100   -0.0000000024   -0.0000000007

Norm of the Cartesian gradient     ...    0.2481865279
RMS gradient                       ...    0.0413644213
MAX gradient                       ...    0.0813729619

-------
TIMINGS
-------

Total SCF gradient time     ....        1.088 sec

Densities                   ....       0.001 sec  (  0.1%)
One electron gradient       ....       0.044 sec  (  4.0%)
RI-J Coulomb gradient       ....       0.308 sec  ( 28.3%)
XC gradient                 ....       0.664 sec  ( 61.0%)

Maximum memory used throughout the entire SCFGRAD-calculation: 29.2 MB
------------------------------------------------------------------------------
                         ORCA GEOMETRY RELAXATION STEP
------------------------------------------------------------------------------

Reading the OPT-File                    .... done
Getting information on internals        .... done
Copying old internal coords+grads       .... done
Making the new internal coordinates     .... (2022 redundants) done
Validating the new internal coordinates .... (2022 redundants) done
Calculating the B-matrix                .... done
Calculating the G,G- and P matrices     .... done
Transforming gradient to internals      .... done
Projecting the internal gradient        .... done
Number of atoms                         ....  12
Number of internal coordinates          ....  49
Current Energy                          ....  -296.834962971 Eh
Current gradient norm                   ....     0.248186528 Eh/bohr
Maximum allowed component of the step   ....  0.300
Current trust radius                    ....  0.300
Evaluating the initial hessian          ....  (Almloef) done
Projecting the Hessian                  .... done
Forming the augmented Hessian           .... done
Diagonalizing the augmented Hessian     .... done
Last element of RFO vector              ....  0.769370005
Lowest eigenvalues of augmented Hessian:
 -0.205634488  0.010000000  0.010000000  0.010000000  0.010000000
Length of the computed step             ....  0.830294144
Warning: the length of the step is outside the trust region - taking restricted step instead
The input lambda is                     ....     0.009000
   iter:   5  x=   -0.446418  g=    2.097819 f(x)=     0.316601
   iter:  10  x=   -0.732669  g=    0.217776 f(x)=     0.000001
The output lambda is                    ....    -0.732669 (12 iterations)
The final length of the internal step   ....  0.300000000
Converting the step to Cartesian space:
 Initial RMS(Int)=    0.0428571429
Transforming coordinates:
 Iter   0:  RMS(Cart)=    0.0559912388 RMS(Int)=    1.2701170678
done
Storing new coordinates                 .... done

                                .--------------------.
          ----------------------|Geometry convergence|-------------------------
          Item                value                   Tolerance       Converged
          ---------------------------------------------------------------------
          RMS gradient        0.0354801677            0.0001000000      NO
          MAX gradient        0.0864755171            0.0003000000      NO
          RMS step            0.0428571429            0.0020000000      NO
          MAX step            0.1049652455            0.0040000000      NO
          -------------------------------------------------------------------------
          ........................................................
          Max(Bonds)      0.0555      Max(Angles)    1.28
          Max(Dihed)        0.00      Max(Improp)    0.00
          ---------------------------------------------------------------------

The optimization has not yet converged - more geometry cycles are needed


    ---------------------------------------------------------------------------
                         Redundant Internal Coordinates
                            (Angstroem and degrees)

        Definition                    Value    dE/dq     Step     New-Value
    ----------------------------------------------------------------------------
     1. B(B   1,B   0)                2.0000  0.059901 -0.0387    1.9613   
     2. B(B   2,B   1)                2.0000  0.060111 -0.0387    1.9613   
     3. B(B   3,B   2)                2.0000  0.086475 -0.0555    1.9445   
     4. B(B   4,B   3)                2.0000  0.086476 -0.0555    1.9445   
     5. B(B   5,B   4)                2.0000  0.060111 -0.0387    1.9613   
     6. B(B   5,B   0)                2.0000  0.059901 -0.0387    1.9613   
     7. B(B   7,B   6)                2.0000  0.086475 -0.0555    1.9445   
     8. B(B   8,B   7)                2.0000  0.060111 -0.0387    1.9613   
     9. B(B   9,B   8)                2.0000  0.059901 -0.0387    1.9613   
    10. B(B   9,B   0)                1.6000 -0.004781  0.0023    1.6023   
    11. B(B  10,B   9)                2.0000  0.059901 -0.0387    1.9613   
    12. B(B  11,B  10)                2.0000  0.060111 -0.0387    1.9613   
    13. B(B  11,B   6)                2.0000  0.086476 -0.0555    1.9445   
    14. A(B   1,B   0,B   9)          120.00 -0.010747    0.64    120.64   
    15. A(B   5,B   0,B   9)          120.00 -0.010747    0.64    120.64   
    16. A(B   1,B   0,B   5)          120.00  0.021494   -1.28    118.72   
    17. A(B   0,B   1,B   2)          120.00 -0.005570    0.29    120.29   
    18. A(B   1,B   2,B   3)          120.00 -0.014100    0.85    120.85   
    19. A(B   2,B   3,B   4)          120.00  0.017845   -1.01    118.99   
    20. A(B   3,B   4,B   5)          120.00 -0.014100    0.85    120.85   
    21. A(B   0,B   5,B   4)          120.00 -0.005570    0.29    120.29   
    22. A(B   7,B   6,B  11)          120.00  0.017845   -1.01    118.99   
    23. A(B   6,B   7,B   8)          120.00 -0.014100    0.85    120.85   
    24. A(B   7,B   8,B   9)          120.00 -0.005570    0.29    120.29   
    25. A(B   8,B   9,B  10)          120.00  0.021494   -1.28    118.72   
    26. A(B   0,B   9,B  10)          120.00 -0.010747    0.64    120.64   
    27. A(B   0,B   9,B   8)          120.00 -0.010747    0.64    120.64   
    28. A(B   9,B  10,B  11)          120.00 -0.005570    0.29    120.29   
    29. A(B   6,B  11,B  10)          120.00 -0.014100    0.85    120.85   
    30. D(B   2,B   1,B   0,B   9)    180.00 -0.000000    0.00    180.00   
    31. D(B   2,B   1,B   0,B   5)      0.00  0.000000   -0.00     -0.00   
    32. D(B   3,B   2,B   1,B   0)      0.00  0.000000   -0.00     -0.00   
    33. D(B   4,B   3,B   2,B   1)      0.00 -0.000000    0.00      0.00   
    34. D(B   5,B   4,B   3,B   2)      0.00  0.000000   -0.00     -0.00   
    35. D(B   4,B   5,B   0,B   9)    180.00  0.000000   -0.00    180.00   
    36. D(B   4,B   5,B   0,B   1)      0.00 -0.000000    0.00      0.00   
    37. D(B   0,B   5,B   4,B   3)      0.00  0.000000   -0.00     -0.00   
    38. D(B   8,B   7,B   6,B  11)      0.00 -0.000000    0.00      0.00   
    39. D(B   9,B   8,B   7,B   6)      0.00  0.000000   -0.00     -0.00   
    40. D(B  10,B   9,B   0,B   5)      0.00  0.000000   -0.00     -0.00   
    41. D(B  10,B   9,B   0,B   1)    180.00  0.000000   -0.00    180.00   
    42. D(B   8,B   9,B   0,B   5)    180.00  0.000000   -0.00    180.00   
    43. D(B   0,B   9,B   8,B   7)    180.00  0.000000   -0.00    180.00   
    44. D(B   8,B   9,B   0,B   1)      0.00  0.000000   -0.00     -0.00   
    45. D(B  10,B   9,B   8,B   7)      0.00  0.000000   -0.00     -0.00   
    46. D(B  11,B  10,B   9,B   8)      0.00 -0.000000    0.00      0.00   
    47. D(B  11,B  10,B   9,B   0)    180.00 -0.000000    0.00    180.00   
    48. D(B   6,B  11,B  10,B   9)      0.00  0.000000   -0.00     -0.00   
    49. D(B  10,B  11,B   6,B   7)      0.00 -0.000000    0.00      0.00   
    ----------------------------------------------------------------------------

Geometry step timings:
Preparation and reading OPT file:      0.000 s ( 1.748 %)
Internal coordinates            :      0.000 s ( 1.382 %)
B/P matrices and projection     :      0.000 s (19.350 %)
Hessian update/contruction      :      0.000 s (18.740 %)
Making the step                 :      0.001 s (30.407 %)
Converting the step to Cartesian:      0.000 s ( 6.504 %)
Storing new data                :      0.000 s ( 2.358 %)
Checking convergence            :      0.000 s ( 1.667 %)
Final printing                  :      0.000 s (17.805 %)
Total time                      :      0.002 s

Time for energy+gradient        :     12.106 s
Time for complete geometry iter :     12.713 s

         *************************************************************
         *                GEOMETRY OPTIMIZATION CYCLE   2            *
         *************************************************************
---------------------------------
CARTESIAN COORDINATES (ANGSTROEM)
---------------------------------
  B     -0.801129    0.000000   -0.000000
  B     -1.800770    1.687412    0.000000
  B     -3.762027    1.675383    0.000000
  B     -4.748954   -0.000000    0.000000
  B     -3.762027   -1.675383   -0.000000
  B     -1.800770   -1.687412   -0.000000
  B      4.748954   -0.000000    0.000000
  B      3.762027    1.675383   -0.000000
  B      1.800770    1.687412   -0.000000
  B      0.801129    0.000000   -0.000000
  B      1.800770   -1.687412    0.000000
  B      3.762027   -1.675383    0.000000

----------------------------
CARTESIAN COORDINATES (A.U.)
----------------------------
  NO LB      ZA    FRAG     MASS         X           Y           Z
   0 B     5.0000    0    10.810   -1.513915    0.000000   -0.000000
   1 B     5.0000    0    10.810   -3.402962    3.188747    0.000000
   2 B     5.0000    0    10.810   -7.109201    3.166015    0.000000
   3 B     5.0000    0    10.810   -8.974223   -0.000000    0.000000
   4 B     5.0000    0    10.810   -7.109201   -3.166015   -0.000000
   5 B     5.0000    0    10.810   -3.402962   -3.188746   -0.000000
   6 B     5.0000    0    10.810    8.974223   -0.000000    0.000000
   7 B     5.0000    0    10.810    7.109201    3.166015   -0.000000
   8 B     5.0000    0    10.810    3.402962    3.188747   -0.000000
   9 B     5.0000    0    10.810    1.513915    0.000000   -0.000000
  10 B     5.0000    0    10.810    3.402962   -3.188746    0.000000
  11 B     5.0000    0    10.810    7.109201   -3.166015    0.000000

--------------------------------
INTERNAL COORDINATES (ANGSTROEM)
--------------------------------
 B      0   0   0     0.000000000000     0.00000000     0.00000000
 B      1   0   0     1.961285461675     0.00000000     0.00000000
 B      2   1   0     1.961294129330   120.29153342     0.00000000
 B      3   2   1     1.944462028950   120.85271292     0.00000000
 B      4   3   2     1.944461974591   118.99740127     0.00000000
 B      1   2   3     1.961285449412   118.71410159     0.00000000
 B      1   2   3     5.550083469705   120.64295267   180.00000085
 B      7   1   2     1.944462028969    59.49870198     0.00000000
 B      8   7   1     1.961294128817   120.85271286     0.00000000
 B      1   2   3     1.602258522973   120.64295030   180.00000085
 B     10   1   2     1.961285446549   120.64294782   179.99999915
 B      7   1   2     1.944461974799    59.49869933   180.00000000

---------------------------
INTERNAL COORDINATES (A.U.)
---------------------------
 B      0   0   0     0.000000000000     0.00000000     0.00000000
 B      1   0   0     3.706292393007     0.00000000     0.00000000
 B      2   1   0     3.706308772502   120.29153342     0.00000000
 B      3   2   1     3.674500712523   120.85271292     0.00000000
 B      4   3   2     3.674500609800   118.99740127     0.00000000
 B      1   2   3     3.706292369832   118.71410159     0.00000000
 B      1   2   3    10.488137778147   120.64295267   180.00000085
 B      7   1   2     3.674500712560    59.49870198     0.00000000
 B      8   7   1     3.706308771533   120.85271286     0.00000000
 B      1   2   3     3.027829804160   120.64295030   180.00000085
 B     10   1   2     3.706292364423   120.64294782   179.99999915
 B      7   1   2     3.674500610195    59.49869933   180.00000000



           ************************************************************
           *        Program running with 8 parallel MPI-processes     *
           *              working on a common directory               *
           ************************************************************
------------------------------------------------------------------------------
                   ___                                                        
                  /   \      - P O W E R E D   B Y -                         
                 /     \                                                     
                 |  |  |   _    _      __       _____    __    __             
                 |  |  |  | |  | |    /  \     |  _  \  |  |  /  |          
                  \  \/   | |  | |   /    \    | | | |  |  | /  /          
                 / \  \   | |__| |  /  /\  \   | |_| |  |  |/  /          
                |  |  |   |  __  | /  /__\  \  |    /   |      \           
                |  |  |   | |  | | |   __   |  |    \   |  |\   \          
                \     /   | |  | | |  |  |  |  | |\  \  |  | \   \       
                 \___/    |_|  |_| |__|  |__|  |_| \__\ |__|  \__/        
                                                                              
                      - O R C A' S   B I G   F R I E N D -                    
                                      &                                       
                       - I N T E G R A L  F E E D E R -                       
                                                                              
 v1 FN, 2020, v2 2021, v3 2022-2024                                           
------------------------------------------------------------------------------


----------------------
SHARK INTEGRAL PACKAGE
----------------------

Number of atoms                             ...     12
Number of basis functions                   ...    168
Number of shells                            ...     72
Maximum angular momentum                    ...      2
Integral batch strategy                     ... SHARK/LIBINT Hybrid
RI-J (if used) integral strategy            ... SPLIT-RIJ (Revised 2003 algorithm where possible)
Printlevel                                  ...      1
Contraction scheme used                     ... SEGMENTED contraction
Prescreening option                         ... SCHWARTZ
   Thresh                                   ... 2.500e-11
   Tcut                                     ... 2.500e-12
   Tpresel                                  ... 2.500e-12 
Coulomb Range Separation                    ... NOT USED
Exchange Range Separation                   ... NOT USED
Multipole approximations                    ... NOT USED
Finite Nucleus Model                        ... NOT USED
CABS basis                                  ... NOT available
Auxiliary Coulomb fitting basis             ... AVAILABLE
   # of basis functions in Aux-J            ...    588
   # of shells in Aux-J                     ...    180
   Maximum angular momentum in Aux-J        ...      4
Auxiliary J/K fitting basis                 ... NOT available
Auxiliary Correlation fitting basis         ... NOT available
Auxiliary 'external' fitting basis          ... NOT available

Checking pre-screening integrals            ... done (  0.0 sec) Dimension = 72
   => SHARK Basis and OBASIS are compatible. Storing Pre-screening
Shell pair information
Shell pair cut-off parameter TPreSel        ...   2.5e-12
Total number of shell pairs                 ...      2628
Shell pairs after pre-screening             ...      2338
Total number of primitive shell pairs       ...     10596
Primitive shell pairs kept                  ...      6478
          la=0 lb=0:    570 shell pairs
          la=1 lb=0:    798 shell pairs
          la=1 lb=1:    291 shell pairs
          la=2 lb=0:    356 shell pairs
          la=2 lb=1:    262 shell pairs
          la=2 lb=2:     61 shell pairs

Checking whether 4 symmetric matrices of dimension 168 fit in memory
:Max Core in MB      =   2500.00
 MB in use           =      6.67
 MB left             =   2493.33
 MB needed           =      0.43
 Data fit in memory  = YES
Calculating RI/J V-Matrix + Cholesky decomp.... done (  0.0 sec)
Calculating Nuclear repulsion               ... done (  0.0 sec) ENN=    241.722695138001 Eh

Diagonalization of the overlap matrix:
Smallest eigenvalue                        ... 9.259e-04
Time for diagonalization                   ...    0.003 sec
Threshold for overlap eigenvalues          ... 1.000e-07
Number of eigenvalues below threshold      ... 0
Time for construction of square roots      ...    0.002 sec
Total time needed                          ...    0.007 sec

-------------------
DFT GRID GENERATION
-------------------

General Integration Accuracy     IntAcc      ... 4.388
Radial Grid Type                 RadialGrid  ... OptM3 with GC (2021)
Angular Grid (max. ang.)         AngularGrid ... 4 (Lebedev-302)
Angular grid pruning method      GridPruning ... 4 (adaptive)
Weight generation scheme         WeightScheme... mBecke (2022)
Basis function cutoff            BFCut       ... 1.0000e-11
Integration weight cutoff        WCut        ... 1.0000e-14
Partially contracted basis set               ... off
Rotationally invariant grid construction     ... off
Angular grids for H and He will be reduced by one unit

Total number of grid points                  ...    72476
Total number of batches                      ...     1140
Average number of points per batch           ...       63
Average number of grid points per atom       ...     6040
Grids setup in   0.7 sec
Initializing property integral containers    ... done (  0.0 sec)

SHARK setup successfully completed in   0.9 seconds

Maximum memory used throughout the entire STARTUP-calculation: 19.8 MB


           ************************************************************
           *        Program running with 8 parallel MPI-processes     *
           *              working on a common directory               *
           ************************************************************
Occupation numbers will be reassigned to an Aufbau configuration
             **** ENERGY FILE WAS UPDATED (double_ring_nn1.60.en.tmp) ****
Finished Guess after   0.5 sec
Maximum memory used throughout the entire GUESS-calculation: 9.4 MB


[...]
      pz      :     0.508308  p :     1.891638
      px      :     0.435949
      py      :     0.947382
      dz2     :     0.003003  d :     0.032403
      dxz     :     0.007574
      dyz     :     0.000000
      dx2y2   :     0.009467
      dxy     :     0.012359

  7 B s       :     3.092687  s :     3.092687
      pz      :     0.511738  p :     1.733239
      px      :     0.723464
      py      :     0.498037
      dz2     :     0.002684  d :     0.032722
      dxz     :     0.002765
      dyz     :     0.006620
      dx2y2   :     0.011040
      dxy     :     0.009612

  8 B s       :     3.278477  s :     3.278477
      pz      :     0.438274  p :     1.667512
      px      :     0.755436
      py      :     0.473803
      dz2     :     0.002822  d :     0.035758
      dxz     :     0.004891
      dyz     :     0.005542
      dx2y2   :     0.010647
      dxy     :     0.011856

  9 B s       :     3.367043  s :     3.367043
      pz      :     0.540550  p :     1.586400
      px      :     0.311755
      py      :     0.734095
      dz2     :     0.002603  d :     0.030521
      dxz     :     0.003956
      dyz     :     0.000000
      dx2y2   :     0.006806
      dxy     :     0.017156

 10 B s       :     3.278437  s :     3.278437
      pz      :     0.438288  p :     1.667564
      px      :     0.755483
      py      :     0.473794
      dz2     :     0.002822  d :     0.035757
      dxz     :     0.004890
      dyz     :     0.005542
      dx2y2   :     0.010647
      dxy     :     0.011855

 11 B s       :     3.092754  s :     3.092754
      pz      :     0.511716  p :     1.733259
      px      :     0.723496
      py      :     0.498046
      dz2     :     0.002684  d :     0.032719
      dxz     :     0.002766
      dyz     :     0.006620
      dx2y2   :     0.011039
      dxy     :     0.009611



                     *******************************
                     * LOEWDIN POPULATION ANALYSIS *
                     *******************************

----------------------
LOEWDIN ATOMIC CHARGES
----------------------
   0 B :   -0.228275
   1 B :    0.127229
   2 B :   -0.004142
   3 B :   -0.017881
   4 B :   -0.004096
   5 B :    0.127205
   6 B :   -0.017923
   7 B :   -0.004154
   8 B :    0.127233
   9 B :   -0.228296
  10 B :    0.127208
  11 B :   -0.004107

-------------------------------
LOEWDIN REDUCED ORBITAL CHARGES
-------------------------------
  0 B s       :     2.726619  s :     2.726619
      pz      :     0.554109  p :     2.403920
      px      :     0.934674
      py      :     0.915137
      dz2     :     0.010526  d :     0.097736
      dxz     :     0.008877
      dyz     :     0.000000
      dx2y2   :     0.020066
      dxy     :     0.058267

  1 B s       :     2.843459  s :     2.843459
      pz      :     0.421690  p :     1.942883
      px      :     0.971984
      py      :     0.549209
      dz2     :     0.010060  d :     0.086429
      dxz     :     0.010922
      dyz     :     0.007279
      dx2y2   :     0.030003
      dxy     :     0.028165

  2 B s       :     2.820093  s :     2.820093
      pz      :     0.498044  p :     2.098476
      px      :     0.979834
      py      :     0.620597
      dz2     :     0.010625  d :     0.085574
      dxz     :     0.007021
      dyz     :     0.009356
      dx2y2   :     0.034608
      dxy     :     0.023964

  3 B s       :     2.867610  s :     2.867610
      pz      :     0.514311  p :     2.070891
      px      :     0.531917
      py      :     1.024664
      dz2     :     0.009159  d :     0.079379
      dxz     :     0.014048
      dyz     :     0.000000
      dx2y2   :     0.020315
      dxy     :     0.035857

  4 B s       :     2.820109  s :     2.820109
      pz      :     0.498017  p :     2.098425
      px      :     0.979805
      py      :     0.620602
      dz2     :     0.010624  d :     0.085563
      dxz     :     0.007022
      dyz     :     0.009354
      dx2y2   :     0.034602
      dxy     :     0.023962

  5 B s       :     2.843436  s :     2.843436
      pz      :     0.421707  p :     1.942926
      px      :     0.972036
      py      :     0.549182
      dz2     :     0.010061  d :     0.086432
      dxz     :     0.010922
      dyz     :     0.007279
      dx2y2   :     0.030005
      dxy     :     0.028166

  6 B s       :     2.867582  s :     2.867582
      pz      :     0.514337  p :     2.070955
      px      :     0.531933
      py      :     1.024685
      dz2     :     0.009160  d :     0.079386
      dxz     :     0.014050
      dyz     :     0.000000
      dx2y2   :     0.020318
      dxy     :     0.035858

  7 B s       :     2.820076  s :     2.820076
      pz      :     0.498053  p :     2.098498
      px      :     0.979829
      py      :     0.620616
      dz2     :     0.010626  d :     0.085581
      dxz     :     0.007022
      dyz     :     0.009357
      dx2y2   :     0.034610
      dxy     :     0.023966

  8 B s       :     2.843451  s :     2.843451
      pz      :     0.421696  p :     1.942885
      px      :     0.971973
      py      :     0.549216
      dz2     :     0.010060  d :     0.086432
      dxz     :     0.010922
      dyz     :     0.007280
      dx2y2   :     0.030003
      dxy     :     0.028166

  9 B s       :     2.726611  s :     2.726611
      pz      :     0.554128  p :     2.403949
      px      :     0.934673
      py      :     0.915147
      dz2     :     0.010527  d :     0.097737
      dxz     :     0.008877
      dyz     :     0.000000
      dx2y2   :     0.020066
      dxy     :     0.058266

 10 B s       :     2.843427  s :     2.843427
      pz      :     0.421712  p :     1.942930
      px      :     0.972030
      py      :     0.549188
      dz2     :     0.010061  d :     0.086435
      dxz     :     0.010922
      dyz     :     0.007280
      dx2y2   :     0.030005
      dxy     :     0.028167

 11 B s       :     2.820091  s :     2.820091
      pz      :     0.498026  p :     2.098446
      px      :     0.979799
      py      :     0.620621
      dz2     :     0.010625  d :     0.085570
      dxz     :     0.007022
      dyz     :     0.009356
      dx2y2   :     0.034604
      dxy     :     0.023963



                      *****************************
                      * MAYER POPULATION ANALYSIS *
                      *****************************

  NA   - Mulliken gross atomic population
  ZA   - Total nuclear charge
  QA   - Mulliken gross atomic charge
  VA   - Mayer's total valence
  BVA  - Mayer's bonded valence
  FA   - Mayer's free valence

  ATOM       NA         ZA         QA         VA         BVA        FA
  0 B      4.9840     5.0000     0.0160     2.8559     2.8559    -0.0000
  1 B      4.9817     5.0000     0.0183     3.0210     3.0210     0.0000
  2 B      4.8587     5.0000     0.1413     3.1996     3.1996    -0.0000
  3 B      5.3351     5.0000    -0.3351     3.2209     3.2209     0.0000
  4 B      4.8588     5.0000     0.1412     3.1996     3.1996     0.0000
  5 B      4.9817     5.0000     0.0183     3.0211     3.0211     0.0000
  6 B      5.3352     5.0000    -0.3352     3.2210     3.2210     0.0000
  7 B      4.8586     5.0000     0.1414     3.1997     3.1997     0.0000
  8 B      4.9817     5.0000     0.0183     3.0210     3.0210     0.0000
  9 B      4.9840     5.0000     0.0160     2.8559     2.8559     0.0000
 10 B      4.9818     5.0000     0.0182     3.0211     3.0211     0.0000
 11 B      4.8587     5.0000     0.1413     3.1997     3.1997     0.0000

  Mayer bond orders larger than 0.100000
B(  0-B ,  1-B ) :   1.0028 B(  0-B ,  5-B ) :   1.0029 B(  0-B ,  6-B ) :   0.1004 
B(  0-B ,  9-B ) :   0.5722 B(  1-B ,  2-B ) :   1.0437 B(  1-B ,  3-B ) :   0.1296 
B(  1-B ,  4-B ) :   0.1644 B(  1-B ,  5-B ) :   0.5948 B(  2-B ,  3-B ) :   1.3362 
B(  2-B ,  4-B ) :   0.5452 B(  2-B ,  5-B ) :   0.1643 B(  3-B ,  4-B ) :   1.3362 
B(  3-B ,  5-B ) :   0.1296 B(  3-B ,  9-B ) :   0.1004 B(  4-B ,  5-B ) :   1.0438 
B(  6-B ,  7-B ) :   1.3363 B(  6-B ,  8-B ) :   0.1296 B(  6-B , 10-B ) :   0.1296 
B(  6-B , 11-B ) :   1.3363 B(  7-B ,  8-B ) :   1.0437 B(  7-B , 10-B ) :   0.1643 
B(  7-B , 11-B ) :   0.5452 B(  8-B ,  9-B ) :   1.0028 B(  8-B , 10-B ) :   0.5949 
B(  8-B , 11-B ) :   0.1643 B(  9-B , 10-B ) :   1.0029 B( 10-B , 11-B ) :   1.0437 


-------
TIMINGS
-------

Total SCF time: 0 days 0 hours 0 min 1 sec 

Total time                  ....       1.603 sec
Sum of individual times     ....       1.364 sec  ( 85.1%)

SCF preparation             ....       0.478 sec  ( 29.8%)
Fock matrix formation       ....       0.665 sec  ( 41.4%)
  Startup                   ....       0.007 sec  (  1.1% of F)
  Split-RI-J                ....       0.308 sec  ( 46.3% of F)
  XC integration            ....       0.491 sec  ( 73.9% of F)
    XC Preparation          ....       0.000 sec  (  0.0% of XC)
    Basis function eval.    ....       0.134 sec  ( 27.4% of XC)
    Density eval.           ....       0.078 sec  ( 15.9% of XC)
    XC-Functional eval.     ....       0.021 sec  (  4.4% of XC)
    XC-Potential eval.      ....       0.098 sec  ( 20.0% of XC)
Diagonalization             ....       0.000 sec  (  0.0%)
Density matrix formation    ....       0.012 sec  (  0.7%)
Total Energy calculation    ....       0.025 sec  (  1.6%)
Population analysis         ....       0.072 sec  (  4.5%)
Orbital Transformation      ....       0.013 sec  (  0.8%)
Orbital Orthonormalization  ....       0.000 sec  (  0.0%)
DIIS solution               ....       0.020 sec  (  1.3%)
SOSCF solution              ....       0.080 sec  (  5.0%)
Finished LeanSCF after   1.7 sec

Maximum memory used throughout the entire LEANSCF-calculation: 10.0 MB


-------------------------------------------------------------------------------
                          DFT DISPERSION CORRECTION                            
                                                                               
                              DFTD3 V3.1  Rev 1                                
                          USING Becke-Johnson damping                          
-------------------------------------------------------------------------------
The BP86 functional is recognized
Active option DFTDOPT                   ...         4   

molecular C6(AA) [au] = 5055.982626 


            DFT-D V3
 parameters
 s6 scaling factor         :     1.0000 
 a1 scaling factor         :     0.3946 
 s8 scaling factor         :     3.2822 
 a2 scaling factor         :     4.8516 
 ad hoc parameters k1-k3   :    16.0000     1.3333    -4.0000 

 Edisp/kcal,au: -16.172714893193  -0.025772858955 
 E6   /kcal   :  -4.726138621 
 E8   /kcal   : -11.446576272 
 % E8         :  70.777085650 

-------------------------   ----------------
Dispersion correction           -0.025772859
-------------------------   ----------------


-------------------------   --------------------
FINAL SINGLE POINT ENERGY      -297.491165238471
-------------------------   --------------------

                                *** OPTIMIZATION RUN DONE ***



           ************************************************************
           *        Program running with 8 parallel MPI-processes     *
           *              working on a common directory               *
           ************************************************************

------------------------------------------------------------------------------
                              ORCA PROPERTY CALCULATIONS
------------------------------------------------------------------------------

GBWName                                 ... double_ring_nn1.60.gbw
Number of atoms                         ...     12
Number of basis functions               ...    168
Max core memory                         ...   2500 MB

Electric properties:
Dipole moment                           ... YES
Quadrupole moment                       ...  NO
Static polarizability (Dipole/Dipole)   ...  NO
Static polarizability (Dipole/Quad.)    ...  NO
Static polarizability (Quad./Quad.)     ...  NO
Static polarizability (Velocity)        ...  NO
Static hyperpolarizability              ...  NO

Atomic electric properties:
Dipole moment                           ...  NO
Quadrupole moment                       ...  NO
Static polarizability                   ...  NO

Choice of electric origin               ... Center of mass
Position of electric origin             ...     0.000000     0.000000    -0.000000

General magnetic properties:
Magnetizability                         ...  NO

EPR properties:
g-Tensor (aka g-matrix)                 ...  NO
Zero-Field splitting spin-orbit         ...  NO
Zero-field splitting spin-spin          ...  NO
Hyperfine couplings                     ...  NO (   0 nuclei)
Quadrupole couplings                    ...  NO (   0 nuclei)
Contact density                         ...  NO (   0 nuclei)

NMR properties:
Chemical shifts                         ...  NO (   0 nuclei)
Spin-rotation constants                 ...  NO (   0 nuclei)
Spin-spin couplings                     ...  NO (   0 nuclei,    0 pairs)

Choice of magnetic origin               ... GIAO
Position of magnetic origin             ...     0.000000     0.000000     0.000000

Properties with geometric perturbations:
SCF Hessian                             ...  NO
IR spectrum                             ...  NO
VCD spectrum                            ...  NO
X-ray spectroscopy properties:
SCF XES/XAS/RIXS spectra                ...  NO

SCF SOC stabilization energy            ...  NO
Diagonal Born-Oppenheimer correction    ...  NO

-------------
DIPOLE MOMENT
-------------

Method             : SCF
Type of density    : Electron Density
Multiplicity       :   1
Irrep              :   0
Energy             :  -297.4653923795158335 Eh
Basis              : AO
                                X                 Y                 Z
Electronic contribution:     -0.000563763      -0.000000747      -0.000000002
Nuclear contribution   :      0.000000000       0.000000000       0.000000000
                        -----------------------------------------
Total Dipole Moment    :     -0.000563763      -0.000000747      -0.000000002
                        -----------------------------------------
Magnitude (a.u.)       :      0.000563763
Magnitude (Debye)      :      0.001432973



--------------------
Rotational spectrum 
--------------------
 
Rotational constants in cm-1:             0.215148             0.012647             0.011945 
Rotational constants in MHz :          6449.988572           379.155347           358.104571 

Dipole components along the rotational axes: 
x,y,z [a.u.] :    -0.000564    -0.000001    -0.000000 
x,y,z [Debye]:    -0.001433    -0.000002    -0.000000 

 

Dipole moment calculation done in   0.0 sec 

Maximum memory used throughout the entire PROP-calculation: 8.1 MB

--------------------------------
SUGGESTED CITATIONS FOR THIS RUN
--------------------------------

Below you find a list of papers that are relevant to this ORCA run
We neither can nor want to force you to cite these papers, but we appreciate if you do
You receive ORCA, which is the product of decades of hard work by many enthusiastic individuals, for free
The only thing we kindly ask in return is that you cite our papers,
We deeply appreciate it, if you show your appreciation for ORCA by not just citing the generic ORCA reference.

Please note that relegating all ORCA citations to the supporting information does *not* help us.
SI sections are not indexed - citations you put there will not count into any citation statistics
But we need these citations in order to attract the funding resources that allow us to do what we are doing

Therefore, if you are a happy ORCA user, please consider citing a few of the papers listed below in the main body of your paper

In addition to the list printed below, the program has created the file double_ring_nn1.60.bibtex that contains the list in bibtex format
You can import this file easily into all common literature databanks and citation aid programs

It goes without saying that in many instances, there are alternative algorithms to achieve similar
results as the ones you have gotten from ORCA. It is, of course, also the case that in some instances
ORCA just re-implements algorithms worked out by others. We are fully aware of that and we are also
fully appreciative of our colleagues work. Hence this citation list should not be read as indicating
that the listed papers, which are focused on our own work, are the only ones worth citing. It simply
meant to make it easier for users to cite ORCA specific papers. It is not a substitute for doing your
own literature research and citing the relevant literature in a scientifically appropriate manner.

List of essential papers. We consider these as the minimum necessary citations

  1. Neese, F.
     Software update: the ORCA program system, version 6.0
     WIRES Comput. Molec. Sci. 2025 15(1), e70019
     doi.org/10.1002/wcms.70019

List of papers to cite with high priority. The work reported in these papers was absolutely
necessary for this run to complete.
Our perspective: the developers of density functionals and basis sets usually get cited in chemistry papers
Good! But without the algorithms to do something with them, the functionals or basis sets would not do anything.
Hence, in our opinion, the algorithm design and method developments papers are equally worthy of getting cited

  1. Neese, F.
     An improvement of the resolution of the identity approximation for the formation of the Coulomb matrix
     J. Comp. Chem. 2003 24(14), 1740-1747
     doi.org/10.1002/jcc.10318
  2. Grimme, S.; Antony, J.; Ehrlich, S.; Krieg, H.
     A consistent and accurate ab initio parametrization of density functional dispersion correction (DFT-D) for the 94 elements H-Pu
     J. Chem. Phys. 2010 132 , 154104
     doi.org/10.1063/1.3382344
  3. Grimme, S.; Ehrlich, S.; Goerigk, L.
     Effect of the damping function in dispersion corrected density functional theory
     J. Comput. Chem. 2011 32(7), 1456-1465
     doi.org/10.1002/jcc.21759
  4. Neese, F.
     The SHARK Integral Generation and Digestion System
     J. Comp. Chem. 2022 44(3), 381
     doi.org/10.1002/jcc.26942

List of suggested additional citations. These are papers that are important in the 'surrounding' of 
of this run, or papers that preceded the highly important papers. If you like your results we are grateful for a citation.

  1. Neese, F.
     The ORCA program system
     WIRES Comput. Molec. Sci. 2012 2(1), 73-78
     doi.org/10.1002/wcms.81
  2. Neese, F.
     Software update: the ORCA program system, version 4.0
     WIRES Comput. Molec. Sci. 2018 8(1), 1-6
     doi.org/10.1002/wcms.1327
  3. Neese, F.; Wennmohs, F.; Becker, U.; Riplinger, C.
     The ORCA quantum chemistry program package
     J. Chem. Phys. 2020 152(22), 224108
     doi.org/10.1063/5.0004608
  4. Neese, F.
     Software update: The ORCA program system—Version 5.0
     WIRES Comput. Molec. Sci. 2022 12(1), e1606
     doi.org/10.1002/wcms.1606

List of optional additional citations

  1. Neese, F.
     Approximate second-order SCF convergence for spin unrestricted wavefunctions
     Chem. Phys. Lett. 2000 325(1-3), 93-98
     doi.org/10.1016/s0009-2614(00)00662-x

Timings for individual modules:

Sum of individual times          ...      176.899 sec (=   2.948 min)
Startup calculation              ...       29.166 sec (=   0.486 min)  16.5 %
SCF iterations                   ...      112.110 sec (=   1.869 min)  63.4 %
Property calculations            ...        0.668 sec (=   0.011 min)   0.4 %
SCF Gradient evaluation          ...       34.874 sec (=   0.581 min)  19.7 %
Geometry relaxation              ...        0.081 sec (=   0.001 min)   0.0 %
                             ****ORCA TERMINATED NORMALLY****
TOTAL RUN TIME: 0 days 0 hours 3 minutes 10 seconds 656 msec
