
                                 *****************
                                 * O   R   C   A *
                                 *****************

                                            #,                                       
                                            ###                                      
                                            ####                                     
                                            #####                                    
                                            ######                                   
                                           ########,                                 
                                     ,,################,,,,,                         
                               ,,#################################,,                 
                          ,,##########################################,,             
                       ,#########################################, ''#####,          
                    ,#############################################,,   '####,        
                  ,##################################################,,,,####,       
                ,###########''''           ''''###############################       
              ,#####''   ,,,,##########,,,,          '''####'''          '####       
            ,##' ,,,,###########################,,,                        '##       
           ' ,,###''''                  '''############,,,                           
         ,,##''                                '''############,,,,        ,,,,,,###''
      ,#''                                            '''#######################'''  
     '                                                          ''''####''''         
             ,#######,   #######,   ,#######,      ##                                
            ,#'     '#,  ##    ##  ,#'     '#,    #''#        ,####,    ,#,          
            ##       ##  ##   ,#'  ##            #'  '#       #'       ,# #          
            ##       ##  #######   ##           ,######,      #####,      #          
            '#,     ,#'  ##    ##  '#,     ,#' ,#      #,     #,   #      #          
             '#######'   ##     ##  '#######'  #'      '#     '####' #    #          



                #########################################################
                #                        -***-                          #
                #          Department of theory and spectroscopy        #
                #                                                       #
                #                      Frank Neese                      #
                #                                                       #
                #     Directorship, Architecture, Infrastructure        #
                #                    SHARK, DRIVERS                     #
                #        Core code/Algorithms in most modules           #
                #                                                       #
                #        Max Planck Institute fuer Kohlenforschung      #
                #                Kaiser Wilhelm Platz 1                 #
                #                 D-45470 Muelheim/Ruhr                 #
                #                      Germany                          #
                #                                                       #
                #                  All rights reserved                  #
                #                        -***-                          #
                #########################################################


                         Program Version 6.1.1  -  RELEASE   -
                                (GIT: $487d211c$)
                          ($2025-11-21 10:33:24 +0100$)
                                                                         
                                  - NO-DMRG VERSION -                    
                                                                         


 With contributions from (in alphabetic order):
[Max-Planck-Institut fuer Kohlenforschung]                               
  Daniel Aravena         : Magnetic Suceptibility                        
  Michael Atanasov       : Ab Initio Ligand Field Theory (pilot matlab implementation)
  Alexander A. Auer      : GIAO ZORA, VPT2 properties, NMR spectrum      
  Ute Becker             : All parallelization in ORCA, NUMFREQ, NUMCALC 
  Giovanni Bistoni       : ED, misc. LED, open-shell LED, HFLD           
  Dmytro Bykov           : pre 5.0 version of the SCF Hessian            
  Marcos Casanova-Páez   : Triplet and SCS-CIS(D). UHF-(DLPNO)-IP/EA/STEOM-CCSD. UHF-CVS-IP/STEOM-CCSD   
  Vijay G. Chilkuri      : MRCI spin determinant printing, contributions to CSF-ICE 
  Pauline Colinet        : FMM embedding                                 
  Dipayan Datta          : RHF DLPNO-CCSD density                        
  Achintya Kumar Dutta   : EOM-CC, STEOM-CC                              
  Nicolas Foglia         : Exact transition moments, OPA infrastructure, MCD improvements    
  Dmitry Ganyushin       : Spin-Orbit,Spin-Spin,Magnetic field MRCI      
  Miquel Garcia-Rates    : C-PCM and meta-GGA Hessian, CCSD/C-PCM, Gaussian charge scheme 
  Tiago L. C. Gouveia    : GS-ROHF, GS-ROCIS                             
  Yang Guo               : DLPNO-NEVPT2, F12-NEVPT2, CIM, IAO-localization        
  Andreas Hansen         : Spin unrestricted coupled pair/coupled cluster methods 
  Ingolf Harden          : AUTO-CI MPn and infrastructure                
  Benjamin Helmich-Paris : MC-RPA, TRAH-(SCF,CASSCF), AVAS, COSX integrals, SCF dyn. polar., MC-PDFT, srDFT 
  Lee Huntington         : MR-EOM, pCC                                   
  Robert Izsak           : Overlap fitted RIJCOSX, COSX-SCS-MP3, EOM     
  Riya Kayal             : Wick's Theorem for AUTO-CI, AUTO-CI UHF-CCSDT 
  Emily Kempfer          : AUTO-CI RHF CISDT and CCSDT, approximate NEVPT4
  Christian Kollmar      : KDIIS, OOCD, Brueckner-CCSD(T), CCSD density, CASPT2, CASPT2-K, improved NEVPT2 
  Axel Koslowski         : Symmetry handling                             
  Simone Kossmann        : meta-GGA functionals, TD-DFT gradient, OOMP2, (MP2 Hessian; deprecated post 5.0) 
  Lucas Lang             : DCDCAS, Hyperfine gauge corrections, ICE-SOC+SSC
  Marvin Lechner         : AUTO-CI (C++ implementation), FIC-MRCC        
  Spencer Leger          : CASSCF response                               
  Dagmar Lenk            : GEPOL surface, SMD, ORCA-2-JSON               
  Dimitrios Liakos       : Extrapolation schemes; Compound Job, Property file
  Dimitrios Manganas     : Further ROCIS development; embedding schemes. LFT, Crystal Embedding 
  Dimitrios Pantazis     : SARC Basis sets                               
  Anastasios Papadopoulos: AUTO-CI, single reference methods and gradients 
  Taras Petrenko         : pre 6.0 DFT Hessian and TD-DFT gradient,  ECA, NRVS 
  Petra Pikulova         : Analytic Raman intensities                    
  Peter Pinski           : DLPNO-MP2, DLPNO-MP2 Gradient                 
  Shashank Vittal Rao    : ES-AILFT, MagRelax                            
  Christoph Reimann      : Effective Core Potentials                     
  Marius Retegan         : Local ZFS, SOC                                
  Christoph Riplinger    : Optimizer, TS searches, QM/MM, DLPNO-CCSD(T), (RO)-DLPNO pert. Triples 
  Michael Roemelt        : Original ROCIS implementation, recursive CI coupling coefficients
  Masaaki Saitow         : Open-shell DLPNO-CCSD energy and density      
  Barbara Sandhoefer     : DKH picture change effects                    
  Yorick L. A. Schmerwitz: GMF and freeze-and-release deltaSCF, NEB S-IDPP initial path                    
  Kantharuban Sivalingam : CASSCF convergence/infrastructure, NEVPT2, NEVPT3, NEVPT4(SD), FIC-MRCI and CEPA variants
  Bernardo de Souza      : ESD, SOC TD-DFT                               
  Georgi L. Stoychev     : AutoAux, RI-MP2 NMR, DLPNO-MP2 response, X2C  
  Van Anh Tran           : RI-MP2 g-tensors                              
  Willem Van den Heuvel  : Paramagnetic NMR                              
  Zikuan Wang            : NOTCH, Electric field optimization            
  Frank Wennmohs         : Technical directorship and infrastructure     
  Hang Xu                : AUTO-CI-Response properties                   
                                                                         
[FACCTs GmbH]                                                            
  Markus Bursch, Nicolas Foglia, Miquel Garcia-Rates, Ingolf Harden, Hagen Neugebauer, Anastasios Papadopoulos, 
  Christoph Riplinger, Bernardo de Souza, Georgi L. Stoychev                                                    
                                                                 
  APM, various basis sets, CI-OPT, improved COSX, DLPNO-Multilevel,           
  DOCKER, DRACO, updates on ESD, Fragmentator, GOAT, IRC, LR-CPCM, L-BFGS, MBIS, meta-GGA TD-DFT gradient, ML-optimized integration grids, 
  MM, NACMEs, nearIR, NEB, NEB-TS, NL-DFT gradient (VV10), 2- and 3-layer-ONIOM, interface openCOSMO-RS, QMMM,   
  Crystal-QMMM, RESP, rigid body optimization, SF, symmetry and pop. for TD-DFT, various functionals, SOLVATOR                                   
                                                                         
[Other institutions]                                                     
  V. Asgeirsson          : NEB                                           
  Christoph Bannwarth    : sTDA-DFT, sTD-DFT, PBEh-3c, B97-3c, D3        
  Giovanni Bistoni       : ETS/NOCV, ADLD/ADEX, COVALED                  
  Martin Brehm           : Molecular dynamics                            
  Ronald Cardenas        : ETS/NOCV                                      
  Martina Colucci        : COVALED                                       
  Sebastian Ehlert       : rSCAN, r2SCAN, r2SCAN-3c, D4, dhf basis sets  
  Marvin Friede          : D4 for Fr, Ra, Ac-Lr                          
  Lars Goerigk           : TD-DFT with DH, B97 family of functionals     
  Stefan Grimme          : VdW corrections, initial TS optimization, DFT functionals, gCP, sTDA/sTD-DF 
  Waldemar Hujo          : DFT-NL                                        
  H. Jonsson             : NEB                                           
  Holger Kruse           : gCP                                           
  Marcel Mueller         : wB97X-3c, vDZP basis set                      
  Hagen Neugebauer       : wr2SCAN, Native XTB                           
  Gianluca Regni         : ADLD/ADEX                                     
  Tobias Risthaus        : pre 6.0 range-separated hybrid DFT and stability analysis
  Lukas Wittmann         : regularized MP2, r2SCAN double-hybrids, wr2SCAN        
                                                                         
We gratefully acknowledge several colleagues who have allowed us to      
interface, adapt or use parts of their codes:                            
  Ed Valeev, F. Pavosevic, A. Kumar             : LibInt (2-el integral package), F12 methods 
  Garnet Chan, S. Sharma, J. Yang, R. Olivares  : DMRG                   
  Ulf Ekstrom                                   : XCFun DFT Library      
  Mihaly Kallay                                 : mrcc  (arbitrary order and MRCC methods)
  Frank Weinhold                                : gennbo (NPA and NBO analysis)           
  Simon Mueller                                 : openCOSMO-RS                            
  Christopher J. Cramer and Donald G. Truhlar   : smd solvation model                     
  S Lehtola, MJT Oliveira, MAL Marques          : LibXC Library                           
  Liviu Ungur et al                             : ANISO software                          


 Your calculation uses the libint2 library for the computation of 2-el integrals
 For citations please refer to: http://libint.valeyev.net

 Your ORCA version has been built with support for libXC version: 7.0.0
 For citations please refer to: https://libxc.gitlab.io

 This ORCA versions uses:
   CBLAS   interface :  Fast vector & matrix operations
   LAPACKE interface :  Fast linear algebra routines
   SCALAPACK package :  Parallel linear algebra routines
   Shared memory     :  Shared parallel matrices
   BLAS/LAPACK       :  OpenBLAS 0.3.29  USE64BITINT DYNAMIC_ARCH NO_AFFINITY Zen SINGLE_THREADED
        Core in use  :  Zen
   Copyright (c) 2011-2014, The OpenBLAS Project


  ***********************************
  * Starting time: Thu Apr 23 19:47:28 2026
  * Host name:     vmi3233575
  * Process ID:    1444663
  * Working dir.:  /root/b12_scan/jobs/quasi_planar_nn2.00
  ***********************************

NOTE: MaxCore=2500 MB was set to SCF,MP2,MDCI,CIPSI,MRCI,RASCI and CIS
      => If you want to overwrite this, your respective input block should be placed after the MaxCore statement
Your calculation utilizes the atom-pairwise dispersion correction
with the Becke-Johnson damping scheme (D3BJ)


================================================================================

----- Orbital basis set information -----
Your calculation utilizes the basis: def2-SVP
   F. Weigend and R. Ahlrichs, Phys. Chem. Chem. Phys. 7, 3297 (2005).

----- AuxJ basis set information -----
Your calculation utilizes the auxiliary basis: def2/J
   H-Rn: F. Weigend, Phys. Chem. Chem. Phys. 8, 1057 (2006).
   Fr-Lr: K. Eichkorn, F. Weigend, O. Treutler, R. Ahlrichs; Theor. Chem. Acc. 97, 119 (1997).

================================================================================
                                        WARNINGS
                       Please study these warnings very carefully!
================================================================================


WARNING: Geometry Optimization
  ===> : Switching off AutoStart
         For restart on a previous wavefunction, please use MOREAD

================================================================================
                                       INPUT FILE
================================================================================
NAME = quasi_planar_nn2.00.inp
|  1> ! BP86 def2-SVP def2/J RI Opt TightSCF D3BJ
|  2> ! SlowConv
|  3> 
|  4> %pal nprocs 8 end
|  5> %maxcore 2500
|  6> 
|  7> %geom
|  8>   MaxIter 300
|  9> end
| 10> 
| 11> * xyz 0 1
| 12> B      1.15470054      0.00000000      0.31491833
| 13> B     -0.57735027      1.00000000      0.31491833
| 14> B     -0.57735027     -1.00000000      0.31491833
| 15> B      3.65569224      0.36679268     -0.10497278
| 16> B      2.56465293      2.63081317     -0.10497278
| 17> B      0.27358402      3.66384694     -0.10497278
| 18> B     -2.14549790      2.98252600     -0.10497278
| 19> B     -3.56067750      0.90564801     -0.10497278
| 20> B     -3.30977653     -1.59499276     -0.10497278
| 21> B     -1.51019434     -3.34931868     -0.10497278
| 22> B      0.99602457     -3.53646118     -0.10497278
| 23> B      3.03619251     -2.06885418     -0.10497278
| 24> *
| 25> 
| 26>                          ****END OF INPUT****
================================================================================

                       *****************************
                       * Geometry Optimization Run *
                       *****************************

Geometry optimization settings:
Update method            Update   .... BFGS
Choice of coordinates    CoordSys .... (2022) Redundant Internals
Initial Hessian          InHess   .... Almloef's Model
Max. no of cycles        MaxIter  .... 300

Convergence Tolerances:
Energy Change            TolE     ....  5.0000e-06 Eh
Max. Gradient            TolMAXG  ....  3.0000e-04 Eh/bohr
RMS Gradient             TolRMSG  ....  1.0000e-04 Eh/bohr
Max. Displacement        TolMAXD  ....  4.0000e-03 bohr
RMS Displacement         TolRMSD  ....  2.0000e-03 bohr
Strict Convergence                .... False

------------------------------------------------------------------------------
                        ORCA OPTIMIZATION COORDINATE SETUP
------------------------------------------------------------------------------

The optimization will be done in redundant internal coordinates (2022)
Making redundant internal coordinates   ...  (2022 redundants) done
Evaluating the initial hessian          ...  (Almloef) done
Evaluating the coordinates              ...  done
Calculating the B-matrix                .... done
Calculating the G-matrix                .... done
The number of degrees of freedom        ....  186

    -----------------------------------------------------------------
                    Redundant Internal Coordinates


    -----------------------------------------------------------------
         Definition                    Initial Value    Approx d2E/dq
    -----------------------------------------------------------------
      1. B(B   1,B   0)                  2.0000         0.089157   
      2. B(B   2,B   0)                  2.0000         0.089157   
      3. B(B   2,B   1)                  2.0000         0.089157   
      4. B(B   3,B   0)                  2.5624         0.011296   
      5. B(B   4,B   0)                  3.0142         0.010000   
      6. B(B   4,B   3)                  2.5132         0.013533   
      7. B(B   5,B   4)                  2.5132         0.013533   
      8. B(B   5,B   1)                  2.8278         0.010000   
      9. B(B   6,B   5)                  2.5132         0.013533   
     10. B(B   6,B   1)                  2.5624         0.011296   
     11. B(B   7,B   1)                  3.0142         0.010000   
     12. B(B   7,B   6)                  2.5132         0.013533   
     13. B(B   8,B   2)                  2.8278         0.010000   
     14. B(B   8,B   7)                  2.5132         0.013533   
     15. B(B   9,B   8)                  2.5132         0.013533   
     16. B(B   9,B   2)                  2.5624         0.011296   
     17. B(B  10,B   9)                  2.5132         0.013533   
     18. B(B  10,B   2)                  3.0142         0.010000   
     19. B(B  11,B   3)                  2.5132         0.013533   
     20. B(B  11,B   0)                  2.8278         0.010000   
     21. B(B  11,B  10)                  2.5132         0.013533   
     22. A(B   3,B   0,B  11)           55.3182         0.136110   
     23. A(B   1,B   0,B  11)          160.3935         0.164196   
     24. A(B   2,B   0,B   4)          147.2990         0.153399   
     25. A(B   1,B   0,B   3)          140.6877         0.182765   
     26. A(B   1,B   0,B   2)           60.0000         0.238665   
     27. A(B   4,B   0,B  11)          107.8567         0.121356   
     28. A(B   1,B   0,B   4)           88.2062         0.153399   
     29. A(B   2,B   0,B   3)          156.4697         0.182765   
     30. A(B   3,B   0,B   4)           52.8196         0.129346   
     31. A(B   2,B   0,B  11)          102.1463         0.164196   
     32. A(B   0,B   1,B   5)          102.1463         0.164196   
     33. A(B   0,B   1,B   6)          156.4697         0.182765   
     34. A(B   2,B   1,B   5)          160.3935         0.164196   
     35. A(B   0,B   1,B   2)           60.0000         0.238665   
     36. A(B   5,B   1,B   6)           55.3182         0.136110   
     37. A(B   2,B   1,B   6)          140.6877         0.182765   
     38. A(B   5,B   1,B   7)          107.8567         0.121356   
     39. A(B   6,B   1,B   7)           52.8196         0.129346   
     40. A(B   2,B   1,B   7)           88.2062         0.153399   
     41. A(B   0,B   1,B   7)          147.2990         0.153399   
     42. A(B   9,B   2,B  10)           52.8196         0.129346   
     43. A(B   0,B   2,B  10)           88.2062         0.153399   
     44. A(B   0,B   2,B   1)           60.0000         0.238665   
     45. A(B   1,B   2,B   9)          156.4697         0.182765   
     46. A(B   0,B   2,B   8)          160.3935         0.164196   
     47. A(B   1,B   2,B  10)          147.2990         0.153399   
     48. A(B   8,B   2,B   9)           55.3182         0.136110   
     49. A(B   1,B   2,B   8)          102.1463         0.164196   
     50. A(B   0,B   2,B   9)          140.6877         0.182765   
     51. A(B   8,B   2,B  10)          107.8567         0.121356   
     52. A(B   0,B   3,B   4)           72.8562         0.150196   
     53. A(B   4,B   3,B  11)          140.0000         0.152750   
     54. A(B   0,B   3,B  11)           67.7084         0.150196   
     55. A(B   0,B   4,B   5)           86.1201         0.131030   
     56. A(B   3,B   4,B   5)          140.0000         0.152750   
     57. A(B   0,B   4,B   3)           54.3242         0.131030   
     58. A(B   1,B   5,B   6)           56.9735         0.138077   
     59. A(B   4,B   5,B   6)          140.0000         0.152750   
     60. A(B   1,B   5,B   4)           83.5180         0.138077   
     61. A(B   1,B   6,B   5)           67.7084         0.150196   
     62. A(B   1,B   6,B   7)           72.8562         0.150196   
     63. A(B   5,B   6,B   7)          140.0000         0.152750   
     64. A(B   1,B   7,B   6)           54.3242         0.131030   
     65. A(B   6,B   7,B   8)          140.0000         0.152750   
     66. A(B   1,B   7,B   8)           86.1201         0.131030   
     67. A(B   2,B   8,B   7)           83.5180         0.138077   
     68. A(B   7,B   8,B   9)          140.0000         0.152750   
     69. A(B   2,B   8,B   9)           56.9735         0.138077   
     70. A(B   8,B   9,B  10)          140.0000         0.152750   
     71. A(B   2,B   9,B   8)           67.7084         0.150196   
     72. A(B   2,B   9,B  10)           72.8562         0.150196   
     73. A(B   2,B  10,B  11)           86.1201         0.131030   
     74. A(B   9,B  10,B  11)          140.0000         0.152750   
     75. A(B   2,B  10,B   9)           54.3242         0.131030   
     76. A(B   0,B  11,B   3)           56.9735         0.138077   
     77. A(B   3,B  11,B  10)          140.0000         0.152750   
     78. A(B   0,B  11,B  10)           83.5180         0.138077   
     79. D(B   5,B   1,B   0,B   3)     -6.2537         0.010000   
     80. D(B   2,B   1,B   0,B  11)     26.2639         0.010000   
     81. D(B   7,B   1,B   0,B   2)    -14.9424         0.010000   
     82. D(B   2,B   1,B   0,B   4)    171.9885         0.010000   
     83. D(B   5,B   1,B   0,B   2)   -171.2637         0.010000   
     84. D(B   5,B   1,B   0,B  11)   -144.9998         0.010000   
     85. D(B   5,B   1,B   0,B   4)      0.7248         0.010000   
     86. D(B   2,B   1,B   0,B   3)    165.0100         0.010000   
     87. D(B   9,B   2,B   0,B   4)    150.0675         0.010000   
     88. D(B   9,B   2,B   1,B   5)   -129.5027         0.010000   
     89. D(B   9,B   2,B   0,B   1)    165.0100         0.010000   
     90. D(B   9,B   2,B   0,B  11)     -6.2537         0.010000   
     91. D(B   9,B   2,B   1,B   6)      9.2434         0.010000   
     92. D(B   1,B   2,B   0,B   3)   -155.7666         0.010000   
     93. D(B   9,B   2,B   0,B   3)      9.2434         0.010000   
     94. D(B   0,B   2,B   1,B   6)    165.0100         0.010000   
     95. D(B   0,B   2,B   1,B   7)    171.9885         0.010000   
     96. D(B   9,B   2,B   1,B   7)     16.2219         0.010000   
     97. D(B   9,B   2,B   1,B   0)   -155.7666         0.010000   
     98. D(B   8,B   2,B   1,B   0)   -171.2637         0.010000   
     99. D(B   1,B   2,B   0,B   4)    -14.9424         0.010000   
    100. D(B   1,B   2,B   0,B  11)   -171.2637         0.010000   
    101. D(B   0,B   2,B   1,B   5)     26.2639         0.010000   
    102. D(B   8,B   2,B   0,B   1)     26.2639         0.010000   
    103. D(B   4,B   3,B   0,B  11)    173.1579         0.010000   
    104. D(B   4,B   3,B   0,B   1)      8.7671         0.010000   
    105. D(B  11,B   3,B   0,B   2)    -18.5207         0.010000   
    106. D(B  11,B   3,B   0,B   1)   -164.3908         0.010000   
    107. D(B  11,B   3,B   0,B   4)   -173.1579         0.010000   
    108. D(B   4,B   3,B   0,B   2)    154.6372         0.010000   
    109. D(B   3,B   4,B   0,B   1)   -174.4559         0.010000   
    110. D(B   5,B   4,B   3,B   0)     -9.8743         0.010000   
    111. D(B   5,B   4,B   3,B  11)      0.0000         0.010000   
    112. D(B   5,B   4,B   0,B  11)    167.7493         0.010000   
    113. D(B   0,B   4,B   3,B  11)      9.8743         0.010000   
    114. D(B   5,B   4,B   0,B   2)     12.1105         0.010000   
    115. D(B   5,B   4,B   0,B   1)     -0.7991         0.010000   
    116. D(B   3,B   4,B   0,B  11)     -5.9076         0.010000   
    117. D(B   3,B   4,B   0,B   2)   -161.5463         0.010000   
    118. D(B   6,B   5,B   4,B   0)     -8.0261         0.010000   
    119. D(B   6,B   5,B   4,B   3)      0.0000         0.010000   
    120. D(B   1,B   5,B   4,B   3)      8.5946         0.010000   
    121. D(B   6,B   5,B   1,B   2)    149.4678         0.010000   
    122. D(B   6,B   5,B   1,B   0)    172.5466         0.010000   
    123. D(B   1,B   5,B   4,B   0)      0.5685         0.010000   
    124. D(B   4,B   5,B   1,B   7)   -167.6979         0.010000   
    125. D(B   4,B   5,B   1,B   2)    -23.9532         0.010000   
    126. D(B   4,B   5,B   1,B   0)     -0.8744         0.010000   
    127. D(B   4,B   5,B   1,B   6)   -173.4211         0.010000   
    128. D(B   1,B   6,B   5,B   4)     10.2011         0.010000   
    129. D(B   7,B   6,B   5,B   1)    -10.2011         0.010000   
    130. D(B   7,B   6,B   5,B   4)      0.0000         0.010000   
    131. D(B   5,B   6,B   1,B   7)   -173.1579         0.010000   
    132. D(B   5,B   6,B   1,B   2)   -164.3908         0.010000   
    133. D(B   7,B   6,B   1,B   5)    173.1579         0.010000   
    134. D(B   7,B   6,B   1,B   2)      8.7671         0.010000   
    135. D(B   7,B   6,B   1,B   0)    154.6372         0.010000   
    136. D(B   5,B   6,B   1,B   0)    -18.5207         0.010000   
    137. D(B   6,B   7,B   1,B   0)   -161.5463         0.010000   
    138. D(B   8,B   7,B   1,B   6)    173.6568         0.010000   
    139. D(B   8,B   7,B   1,B   5)    167.7493         0.010000   
    140. D(B   8,B   7,B   1,B   2)     -0.7991         0.010000   
    141. D(B   8,B   7,B   1,B   0)     12.1105         0.010000   
    142. D(B   1,B   7,B   6,B   5)      9.8743         0.010000   
    143. D(B   8,B   7,B   6,B   1)     -9.8743         0.010000   
    144. D(B   8,B   7,B   6,B   5)      0.0000         0.010000   
    145. D(B   6,B   7,B   1,B   2)   -174.4559         0.010000   
    146. D(B   2,B   8,B   7,B   6)      8.5946         0.010000   
    147. D(B   2,B   8,B   7,B   1)      0.5685         0.010000   
    148. D(B   9,B   8,B   7,B   6)      0.0000         0.010000   
    149. D(B   9,B   8,B   7,B   1)     -8.0261         0.010000   
    150. D(B   7,B   8,B   2,B   9)   -173.4211         0.010000   
    151. D(B   7,B   8,B   2,B   1)     -0.8744         0.010000   
    152. D(B   7,B   8,B   2,B   0)    -23.9532         0.010000   
    153. D(B   9,B   8,B   2,B  10)      5.7231         0.010000   
    154. D(B   9,B   8,B   2,B   1)    172.5466         0.010000   
    155. D(B   9,B   8,B   2,B   0)    149.4678         0.010000   
    156. D(B  10,B   9,B   8,B   7)      0.0000         0.010000   
    157. D(B  10,B   9,B   8,B   2)    -10.2011         0.010000   
    158. D(B   2,B   9,B   8,B   7)     10.2011         0.010000   
    159. D(B  10,B   9,B   2,B   8)    173.1579         0.010000   
    160. D(B  10,B   9,B   2,B   1)    154.6372         0.010000   
    161. D(B  10,B   9,B   2,B   0)      8.7671         0.010000   
    162. D(B   8,B   9,B   2,B  10)   -173.1579         0.010000   
    163. D(B   8,B   9,B   2,B   1)    -18.5207         0.010000   
    164. D(B   8,B   9,B   2,B   0)   -164.3908         0.010000   
    165. D(B  11,B  10,B   9,B   2)     -9.8743         0.010000   
    166. D(B   2,B  10,B   9,B   8)      9.8743         0.010000   
    167. D(B  11,B  10,B   2,B   9)    173.6568         0.010000   
    168. D(B  11,B  10,B   2,B   1)     12.1105         0.010000   
    169. D(B  11,B  10,B   2,B   0)     -0.7991         0.010000   
    170. D(B   9,B  10,B   2,B   8)     -5.9076         0.010000   
    171. D(B   9,B  10,B   2,B   1)   -161.5463         0.010000   
    172. D(B  11,B  10,B   9,B   8)      0.0000         0.010000   
    173. D(B   9,B  10,B   2,B   0)   -174.4559         0.010000   
    174. D(B   3,B  11,B  10,B   2)     -8.0261         0.010000   
    175. D(B   0,B  11,B  10,B   2)      0.5685         0.010000   
    176. D(B   0,B  11,B  10,B   9)      8.5946         0.010000   
    177. D(B   0,B  11,B   3,B   4)    -10.2011         0.010000   
    178. D(B  10,B  11,B   3,B   4)      0.0000         0.010000   
    179. D(B  10,B  11,B   3,B   0)     10.2011         0.010000   
    180. D(B   3,B  11,B   0,B   2)    172.5466         0.010000   
    181. D(B   3,B  11,B   0,B   1)    149.4678         0.010000   
    182. D(B  10,B  11,B   0,B   4)   -167.6979         0.010000   
    183. D(B  10,B  11,B   0,B   3)   -173.4211         0.010000   
    184. D(B   3,B  11,B  10,B   9)      0.0000         0.010000   
    185. D(B  10,B  11,B   0,B   2)     -0.8744         0.010000   
    186. D(B  10,B  11,B   0,B   1)    -23.9532         0.010000   
    -----------------------------------------------------------------

Number of atoms                         .... 12
Number of degrees of freedom            .... 186


         *************************************************************
         *                GEOMETRY OPTIMIZATION CYCLE   1            *
         *************************************************************
---------------------------------
CARTESIAN COORDINATES (ANGSTROEM)
---------------------------------
  B      1.154701    0.000000    0.314918
  B     -0.577350    1.000000    0.314918
  B     -0.577350   -1.000000    0.314918
  B      3.655692    0.366793   -0.104973
  B      2.564653    2.630813   -0.104973
  B      0.273584    3.663847   -0.104973
  B     -2.145498    2.982526   -0.104973
  B     -3.560677    0.905648   -0.104973
  B     -3.309777   -1.594993   -0.104973
  B     -1.510194   -3.349319   -0.104973
  B      0.996025   -3.536461   -0.104973
  B      3.036193   -2.068854   -0.104973

----------------------------
CARTESIAN COORDINATES (A.U.)
----------------------------
  NO LB      ZA    FRAG     MASS         X           Y           Z
   0 B     5.0000    0    10.810    2.182068    0.000000    0.595109
   1 B     5.0000    0    10.810   -1.091034    1.889726    0.595109
   2 B     5.0000    0    10.810   -1.091034   -1.889726    0.595109
   3 B     5.0000    0    10.810    6.908257    0.693138   -0.198370
   4 B     5.0000    0    10.810    4.846492    4.971516   -0.198370
   5 B     5.0000    0    10.810    0.516999    6.923667   -0.198370
   6 B     5.0000    0    10.810   -4.054403    5.636157   -0.198370
   7 B     5.0000    0    10.810   -6.728705    1.711427   -0.198370
   8 B     5.0000    0    10.810   -6.254571   -3.014100   -0.198370
   9 B     5.0000    0    10.810   -2.853854   -6.329295   -0.198370
  10 B     5.0000    0    10.810    1.882214   -6.682943   -0.198370
  11 B     5.0000    0    10.810    5.737572   -3.909568   -0.198370

--------------------------------
INTERNAL COORDINATES (ANGSTROEM)
--------------------------------
 B      0   0   0     0.000000000000     0.00000000     0.00000000
 B      1   0   0     2.000000002105     0.00000000     0.00000000
 B      2   1   0     2.000000000000    60.00000003     0.00000000
 B      1   2   3     2.562382660304   140.68769043   165.00998126
 B      4   1   2     2.513196282646    72.85622652     8.76710029
 B      5   4   1     2.513196275727   140.00000019   350.12571579
 B      6   5   4     2.513196283411   139.99999979     0.00000000
 B      7   6   5     2.513196268818   140.00000012     0.00000000
 B      8   7   6     2.513196283089   140.00000004     0.00000000
 B      9   8   7     2.513196270121   139.99999993     0.00000000
 B     10   9   8     2.513196279670   140.00000026     0.00000000
 B     11  10   9     2.513196277622   139.99999969     0.00000000

---------------------------
INTERNAL COORDINATES (A.U.)
---------------------------
 B      0   0   0     0.000000000000     0.00000000     0.00000000
 B      1   0   0     3.779452271821     0.00000000     0.00000000
 B      2   1   0     3.779452267843    60.00000003     0.00000000
 B      1   2   3     4.842201478283   140.68769043   165.00998126
 B      4   1   2     4.749252694990    72.85622652     8.76710029
 B      5   4   1     4.749252681915   140.00000019   350.12571579
 B      6   5   4     4.749252696436   139.99999979     0.00000000
 B      7   6   5     4.749252668859   140.00000012     0.00000000
 B      8   7   6     4.749252695827   140.00000004     0.00000000
 B      9   8   7     4.749252671321   139.99999993     0.00000000
 B     10   9   8     4.749252689366   140.00000026     0.00000000
 B     11  10   9     4.749252685496   139.99999969     0.00000000

---------------------
BASIS SET INFORMATION
---------------------
There are 1 groups of distinct atoms

 Group   1 Type B   : 7s4p1d contracted to 3s2p1d pattern {511/31/1}

Atom   0B    basis set group =>   1
Atom   1B    basis set group =>   1
Atom   2B    basis set group =>   1
Atom   3B    basis set group =>   1
Atom   4B    basis set group =>   1
Atom   5B    basis set group =>   1
Atom   6B    basis set group =>   1
Atom   7B    basis set group =>   1
Atom   8B    basis set group =>   1
Atom   9B    basis set group =>   1
Atom  10B    basis set group =>   1
Atom  11B    basis set group =>   1
---------------------------------
AUXILIARY/J BASIS SET INFORMATION
---------------------------------
There are 1 groups of distinct atoms

 Group   1 Type B   : 12s5p4d2f1g contracted to 6s4p3d1f1g pattern {711111/2111/211/2/1}

Atom   0B    basis set group =>   1
Atom   1B    basis set group =>   1
Atom   2B    basis set group =>   1
Atom   3B    basis set group =>   1
Atom   4B    basis set group =>   1
Atom   5B    basis set group =>   1
Atom   6B    basis set group =>   1
Atom   7B    basis set group =>   1
Atom   8B    basis set group =>   1
Atom   9B    basis set group =>   1
Atom  10B    basis set group =>   1
Atom  11B    basis set group =>   1


           ************************************************************
           *        Program running with 8 parallel MPI-processes     *
           *              working on a common directory               *
           ************************************************************
------------------------------------------------------------------------------
                             ORCA STARTUP CALCULATIONS
                           -- RI-GTO INTEGRALS CHOSEN --
------------------------------------------------------------------------------
------------------------------------------------------------------------------
                   ___                                                        
                  /   \      - P O W E R E D   B Y -                         
                 /     \                                                     
                 |  |  |   _    _      __       _____    __    __             
                 |  |  |  | |  | |    /  \     |  _  \  |  |  /  |          
                  \  \/   | |  | |   /    \    | | | |  |  | /  /          
                 / \  \   | |__| |  /  /\  \   | |_| |  |  |/  /          
                |  |  |   |  __  | /  /__\  \  |    /   |      \           
                |  |  |   | |  | | |   __   |  |    \   |  |\   \          
                \     /   | |  | | |  |  |  |  | |\  \  |  | \   \       
                 \___/    |_|  |_| |__|  |__|  |_| \__\ |__|  \__/        
                                                                              
                      - O R C A' S   B I G   F R I E N D -                    
                                      &                                       
                       - I N T E G R A L  F E E D E R -                       
                                                                              
 v1 FN, 2020, v2 2021, v3 2022-2024                                           
------------------------------------------------------------------------------


----------------------
SHARK INTEGRAL PACKAGE
----------------------

Number of atoms                             ...     12
Number of basis functions                   ...    168
Number of shells                            ...     72
Maximum angular momentum                    ...      2
Integral batch strategy                     ... SHARK/LIBINT Hybrid
RI-J (if used) integral strategy            ... SPLIT-RIJ (Revised 2003 algorithm where possible)
Printlevel                                  ...      1
Contraction scheme used                     ... SEGMENTED contraction
Prescreening option                         ... SCHWARTZ
   Thresh                                   ... 2.500e-11
   Tcut                                     ... 2.500e-12
   Tpresel                                  ... 2.500e-12 
Coulomb Range Separation                    ... NOT USED
Exchange Range Separation                   ... NOT USED
Multipole approximations                    ... NOT USED
Finite Nucleus Model                        ... NOT USED
CABS basis                                  ... NOT available
Auxiliary Coulomb fitting basis             ... AVAILABLE
   # of basis functions in Aux-J            ...    588
   # of shells in Aux-J                     ...    180
   Maximum angular momentum in Aux-J        ...      4
Auxiliary J/K fitting basis                 ... NOT available
Auxiliary Correlation fitting basis         ... NOT available
Auxiliary 'external' fitting basis          ... NOT available

Checking pre-screening integrals            ... done (  0.0 sec) Dimension = 72
   => SHARK Basis and OBASIS are compatible. Storing Pre-screening
Shell pair information
Shell pair cut-off parameter TPreSel        ...   2.5e-12
Total number of shell pairs                 ...      2628
Shell pairs after pre-screening             ...      2360
Total number of primitive shell pairs       ...     10596
Primitive shell pairs kept                  ...      6459
          la=0 lb=0:    567 shell pairs
          la=1 lb=0:    828 shell pairs
          la=1 lb=1:    291 shell pairs
          la=2 lb=0:    344 shell pairs
          la=2 lb=1:    270 shell pairs
          la=2 lb=2:     60 shell pairs

Checking whether 4 symmetric matrices of dimension 168 fit in memory
:Max Core in MB      =   2500.00
 MB in use           =      6.45
 MB left             =   2493.55
 MB needed           =      0.43
 Data fit in memory  = YES
Calculating RI/J V-Matrix + Cholesky decomp.... done (  0.0 sec)
Calculating Nuclear repulsion               ... done (  0.0 sec) ENN=    226.567740727694 Eh

Diagonalization of the overlap matrix:
Smallest eigenvalue                        ... 2.876e-03
Time for diagonalization                   ...    0.005 sec
Threshold for overlap eigenvalues          ... 1.000e-07
Number of eigenvalues below threshold      ... 0
Time for construction of square roots      ...    0.003 sec
Total time needed                          ...    0.027 sec

-------------------
DFT GRID GENERATION
-------------------

General Integration Accuracy     IntAcc      ... 4.388
Radial Grid Type                 RadialGrid  ... OptM3 with GC (2021)
Angular Grid (max. ang.)         AngularGrid ... 4 (Lebedev-302)
Angular grid pruning method      GridPruning ... 4 (adaptive)
Weight generation scheme         WeightScheme... mBecke (2022)
Basis function cutoff            BFCut       ... 1.0000e-11
Integration weight cutoff        WCut        ... 1.0000e-14
Partially contracted basis set               ... off
Rotationally invariant grid construction     ... off
Angular grids for H and He will be reduced by one unit

Total number of grid points                  ...    72731
Total number of batches                      ...     1143
Average number of points per batch           ...       63
Average number of grid points per atom       ...     6061
Grids setup in   0.9 sec
Initializing property integral containers    ... done (  0.0 sec)

SHARK setup successfully completed in   1.1 seconds

Maximum memory used throughout the entire STARTUP-calculation: 19.6 MB


           ************************************************************
           *        Program running with 8 parallel MPI-processes     *
           *              working on a common directory               *
           ************************************************************
-------------------------------------------------------------------------------
                                 ORCA GUESS
                   Start orbitals & Density for SCF / CASSCF
-------------------------------------------------------------------------------

------------
SCF SETTINGS
------------
Hamiltonian:
 Density Functional     Method          .... DFT(GTOs)
 Exchange Functional    Exchange        .... B88
   X-Alpha parameter    XAlpha          ....  0.666667
   Becke's b parameter  XBeta           ....  0.004200
 Correlation Functional Correlation     .... P86
 LDA part of GGA corr.  LDAOpt          .... PW91-LDA
 Gradients option       PostSCFGGA      .... off
   NL short-range parameter             ....  4.400000
 RI-approximation to the Coulomb term is turned on
   Number of AuxJ basis functions       .... 588


General Settings:
 Integral files         IntName         .... quasi_planar_nn2.00
 Hartree-Fock type      HFTyp           .... RHF
 Total Charge           Charge          ....    0
 Multiplicity           Mult            ....    1
 Number of Electrons    NEL             ....   60
 Basis Dimension        Dim             ....  168
 Nuclear Repulsion      ENuc            ....    226.5677407277 Eh

Convergence Acceleration:
 AO-DIIS                CNVDIIS         .... on
   Start iteration      DIISMaxIt       ....     0
   Startup error        DIISStart       ....  0.200000
   # of expansion vecs  DIISMaxEq       ....     5
   Bias factor          DIISBfac        ....   1.050
   Max. coefficient     DIISMaxC        ....  10.000
 MO-DIIS                CNVKDIIS        .... off
 Trust-Rad. Augm. Hess. CNVTRAH         .... auto
   Auto Start mean grad. ratio tolernc. ....  1.125000
   Auto Start start iteration           ....    50
   Auto Start num. interpolation iter.  ....    10
   Max. Number of Micro iterations      ....    24
   Max. Number of Macro iterations      .... Maxiter - #DIIS iter
   Number of Davidson start vectors     ....     2
   Converg. threshold    (grad. norm)   ....   1.000e-05
   Grad. Scal. Fac. for Micro threshold ....   0.100
   Minimum threshold for Micro iter.    ....   1.000e-02
   NR start threshold (gradient norm)   ....   1.000e-04
   Initial trust radius                 ....   0.400
   Minimum AH scaling param. (alpha)    ....   1.000
   Maximum AH scaling param. (alpha)    .... 1000.000
   Quad. conv. algorithm                .... NR
   White noise on init. David. guess    .... on
   Maximum white noise                  ....   0.010
   Pseudo random numbers                .... off
   Inactive MOs                         .... canonical
   Orbital update algorithm             .... Taylor
   Preconditioner                       .... Diag
   Full preconditioner red. dimension   ....   250
 SOSCF                 CNVSOSCF           .... on
   Start iteration     SOSCFMaxIt         ....   150
   Startup grad/error  SOSCFStart         ....  0.001000
   Hessian update      SOSCFHessUp        .... L-BFGS
   Autom. constraints  SOSCFAutoConstrain .... off
 Level Shifting         CNVShift        .... on
   Level shift para.    LevelShift      ....    0.2500
   Turn off err/grad.   ShiftErr        ....    0.0000
 Zerner damping         CNVZerner       .... off
 Static damping         CNVDamp         .... on
   Fraction old density DampFac         ....    0.8500
   Max. Damping (<1)    DampMax         ....    0.9800
   Min. Damping (>=0)   DampMin         ....    0.0000
   Turn off err/grad.   DampErr         ....    0.0300

SCF Procedure:
 Maximum # iterations   MaxIter         ....   125
 SCF integral mode      SCFMode         .... Direct
   Integral package                     .... SHARK and LIBINT hybrid scheme
 Reset frequency        DirectResetFreq ....    20
 Integral Threshold     Thresh          ....  2.500e-11 Eh
 Primitive CutOff       TCut            ....  2.500e-12 Eh

Convergence Tolerance:
 Convergence Check Mode ConvCheckMode   .... Total+1el-Energy
 Convergence forced     ConvForced      .... 0
 Energy Change          TolE            ....  1.000e-08 Eh
 1-El. energy change                    ....  1.000e-05 Eh
 Orbital Gradient       TolG            ....  1.000e-05
 Orbital Rotation angle TolX            ....  1.000e-05
 DIIS Error             TolErr          ....  5.000e-07

------------------------------
INITIAL GUESS: MODEL POTENTIAL
------------------------------
Loading Hartree-Fock densities                     ... done
Calculating cut-offs                               ... done
Initializing the effective Hamiltonian             ... done
Setting up the integral package (SHARK)            ... done
Starting the Coulomb interaction                   ... done (   0.0 sec)
Making the grid                                    ... done (   0.2 sec)
Mapping shells                                     ... done
Starting the XC term evaluation                    ... done (   0.0 sec)
  promolecular density results
     # of electrons  =     59.999748883
     EX              =    -44.507089698
     EC              =     -1.754379040
     EX+EC           =    -46.261468738
Transforming the Hamiltonian                       ... done (   0.0 sec)
Diagonalizing the Hamiltonian                      ... done (   0.0 sec)
Back transforming the eigenvectors                 ... done (   0.0 sec)
Now organizing SCF variables                       ... done
                      ------------------
                      INITIAL GUESS DONE (   0.4 sec)
                      ------------------
             **** ENERGY FILE WAS UPDATED (quasi_planar_nn2.00.en.tmp) ****
Finished Guess after   0.9 sec
Maximum memory used throughout the entire GUESS-calculation: 9.2 MB


           ************************************************************
           *        Program running with 8 parallel MPI-processes     *
           *              working on a common directory               *
           ************************************************************

-------------------------------------------------------------------------------------------
                                      ORCA LEAN-SCF
                              memory conserving SCF solver
-------------------------------------------------------------------------------------------

----------------------------------------D-I-I-S--------------------------------------------
Iteration    Energy (Eh)           Delta-E    RMSDP     MaxDP     DIISErr   Damp  Time(sec)
-------------------------------------------------------------------------------------------
               ***  Starting incremental Fock matrix formation  ***
    1    -296.0070522319625752     0.00e+00  7.34e-03  7.24e-02  1.43e-01  0.850   1.0
Warning: op=0 Small HOMO/LUMO gap (  -0.033) - skipping pre-diagonalization
         Will do a full diagonalization
    2    -296.2055882602871861    -1.99e-01  7.74e-03  6.52e-02  7.83e-02  0.850   0.6
                               ***Turning on AO-DIIS***
    3    -296.2695847813565706    -6.40e-02  4.69e-03  2.98e-02  1.77e-02  0.850   0.5
    4    -296.2539860023371148     1.56e-02  1.99e-02  1.17e-01  2.94e-02  0.000   0.3
    5    -295.7607065056234887     4.93e-01  6.78e-03  4.88e-02  2.15e-01  0.000   0.3
    6    -296.0632496045551534    -3.03e-01  6.57e-04  3.71e-03  1.52e-01  0.850   0.3
    7    -296.0876391050791199    -2.44e-02  9.95e-04  5.20e-03  1.46e-01  0.850   0.3
    8    -296.1228956131204768    -3.53e-02  1.38e-03  8.08e-03  1.36e-01  0.850   0.2
    9    -296.1682319885125025    -4.53e-02  2.20e-03  1.61e-02  1.22e-01  0.850   0.3
   10    -296.2279100520914881    -5.97e-02  2.28e-03  1.47e-02  1.00e-01  0.850   0.3
   11    -296.2791023982077832    -5.12e-02  1.98e-03  1.11e-02  7.74e-02  0.850   0.4
   12    -296.3146345931082806    -3.55e-02  1.65e-03  8.78e-03  5.79e-02  0.850   0.3
   13    -296.3375831027773302    -2.29e-02  1.35e-03  6.76e-03  4.21e-02  0.850   0.2
   14    -296.3518665998470851    -1.43e-02  1.10e-03  5.65e-03  2.97e-02  0.850   0.2
   15    -296.3605894739750966    -8.72e-03  5.94e-03  3.13e-02  2.03e-02  0.000   0.4
   16    -296.3697004842649676    -9.11e-03  9.24e-04  6.01e-03  2.57e-02  0.000   0.5
   17    -296.3742475907993139    -4.55e-03  6.17e-04  4.16e-03  1.91e-02  0.000   0.2
   18    -296.3766532297862568    -2.41e-03  4.36e-04  2.98e-03  1.44e-02  0.000   0.3
   19    -296.3779920738641067    -1.34e-03  3.36e-04  2.18e-03  1.10e-02  0.000   0.3
   20    -296.3788017941425323    -8.10e-04  4.09e-04  2.73e-03  8.28e-03  0.000   0.4
               *** Restarting incremental Fock matrix formation ***
                             ****Resetting DIIS****
Warning: op=0 Small HOMO/LUMO gap (   0.007) - skipping pre-diagonalization
         Will do a full diagonalization
   21    -296.3794686840633403    -6.67e-04  3.75e-03  2.32e-02  5.06e-03  0.000   0.4
   22    -296.3669776798202520     1.25e-02  1.70e-03  1.71e-02  2.99e-02  0.000   0.3
   23    -296.3761501397895017    -9.17e-03  7.25e-04  4.39e-03  1.60e-02  0.000   0.2
   24    -296.3785807748259913    -2.43e-03  3.77e-04  2.05e-03  9.36e-03  0.000   0.5
   25    -296.3793721050885779    -7.91e-04  2.29e-04  1.15e-03  5.88e-03  0.000   0.3
   26    -296.3796732000211023    -3.01e-04  3.26e-04  1.55e-03  3.91e-03  0.000   0.3
   27    -296.3798813536242278    -2.08e-04  2.57e-04  1.97e-03  1.44e-03  0.000   0.3
                              *** Initializing SOSCF ***
---------------------------------------S-O-S-C-F--------------------------------------
Iteration    Energy (Eh)           Delta-E    RMSDP     MaxDP     MaxGrad    Time(sec)
--------------------------------------------------------------------------------------
   28    -296.3799091574014710    -2.78e-05  1.99e-04  2.11e-03  7.39e-04     0.3
               *** Restarting incremental Fock matrix formation ***
   29    -296.3799230158361979    -1.39e-05  2.13e-04  1.84e-03  2.33e-04     0.3
   30    -296.3799015814012137     2.14e-05  1.58e-04  9.97e-04  9.70e-04     0.2
   31    -296.3799253489430612    -2.38e-05  6.76e-05  6.27e-04  8.93e-05     0.5
   32    -296.3799245911875460     7.58e-07  4.09e-05  3.60e-04  1.56e-04     0.4
   33    -296.3799256535507993    -1.06e-06  4.59e-05  4.75e-04  9.20e-05     0.2
   34    -296.3799250522866942     6.01e-07  3.50e-05  3.49e-04  1.79e-04     0.4
   35    -296.3799257988512181    -7.47e-07  5.79e-06  3.81e-05  5.44e-06     0.5
   36    -296.3799258027762562    -3.93e-09  2.78e-06  1.51e-05  3.87e-06     0.3
                 **** Energy Check signals convergence ****

               *****************************************************
               *                     SUCCESS                       *
               *           SCF CONVERGED AFTER  36 CYCLES          *
               *****************************************************

             **** ENERGY FILE WAS UPDATED (quasi_planar_nn2.00.en.tmp) ****

----------------
TOTAL SCF ENERGY
----------------

Total Energy       :       -296.37992580513458 Eh           -8064.90779 eV

Components:
Nuclear Repulsion  :        226.56774072769414 Eh            6165.22166 eV
Electronic Energy  :       -522.94766653282875 Eh          -14230.12945 eV
One Electron Energy:       -841.73484497302707 Eh          -22904.76959 eV
Two Electron Energy:        318.78717844019832 Eh            8674.64014 eV

Virial components:
Potential Energy   :       -587.93396082672621 Eh          -15998.49642 eV
Kinetic Energy     :        291.55403502159169 Eh            7933.58863 eV
Virial Ratio       :          2.01655230318862

DFT components:
N(Alpha)           :       29.999999782662 electrons
N(Beta)            :       29.999999782662 electrons
N(Total)           :       59.999999565324 electrons
E(X)               :      -44.741943937661 Eh       
E(C)               :       -1.793140484945 Eh       
E(XC)              :      -46.535084422606 Eh       

---------------
SCF CONVERGENCE
---------------

  Last Energy change         ...    3.9250e-09  Tolerance :   1.0000e-08
  Last MAX-Density change    ...    1.5087e-05  Tolerance :   1.0000e-07
  Last RMS-Density change    ...    2.7788e-06  Tolerance :   5.0000e-09
  Last DIIS Error            ...    7.3905e-04  Tolerance :   5.0000e-07
  Last Orbital Gradient      ...    3.8720e-06  Tolerance :   1.0000e-05
  Last Orbital Rotation      ...    3.0862e-05  Tolerance :   1.0000e-05


----------------
ORBITAL ENERGIES
----------------

  NO   OCC          E(Eh)            E(eV) 
   0   2.0000      -6.664877      -181.3605 
   1   2.0000      -6.664875      -181.3605 
   2   2.0000      -6.664864      -181.3602 
   3   2.0000      -6.658640      -181.1908 
   4   2.0000      -6.658639      -181.1908 
   5   2.0000      -6.658631      -181.1906 
   6   2.0000      -6.645044      -180.8208 
   7   2.0000      -6.645042      -180.8208 
   8   2.0000      -6.645031      -180.8205 
   9   2.0000      -6.610270      -179.8746 
  10   2.0000      -6.610269      -179.8746 
  11   2.0000      -6.610016      -179.8677 
  12   2.0000      -0.485743       -13.2177 
  13   2.0000      -0.419275       -11.4091 
  14   2.0000      -0.419275       -11.4090 
  15   2.0000      -0.413537       -11.2529 
  16   2.0000      -0.383768       -10.4429 
  17   2.0000      -0.383768       -10.4429 
  18   2.0000      -0.338378        -9.2077 
  19   2.0000      -0.335446        -9.1279 
  20   2.0000      -0.289191        -7.8693 
  21   2.0000      -0.289190        -7.8693 
  22   2.0000      -0.274807        -7.4779 
  23   2.0000      -0.274806        -7.4779 
  24   2.0000      -0.223077        -6.0702 
  25   2.0000      -0.210387        -5.7249 
  26   2.0000      -0.208759        -5.6806 
  27   2.0000      -0.208758        -5.6806 
  28   2.0000      -0.187734        -5.1085 
  29   2.0000      -0.187733        -5.1085 
  30   0.0000      -0.176696        -4.8081 
  31   0.0000      -0.176695        -4.8081 
  32   0.0000      -0.161408        -4.3921 
  33   0.0000      -0.152382        -4.1465 
  34   0.0000      -0.149094        -4.0571 
  35   0.0000      -0.148456        -4.0397 
  36   0.0000      -0.148456        -4.0397 
  37   0.0000      -0.141464        -3.8494 
  38   0.0000      -0.141463        -3.8494 
  39   0.0000      -0.116410        -3.1677 
  40   0.0000      -0.110692        -3.0121 
*Only the first 10 virtual orbitals were printed.

                    ********************************
                    * MULLIKEN POPULATION ANALYSIS *
                    ********************************

-----------------------
MULLIKEN ATOMIC CHARGES
-----------------------
   0 B :   -0.193352
   1 B :   -0.193348
   2 B :   -0.193345
   3 B :    0.042399
   4 B :    0.081444
   5 B :    0.069510
   6 B :    0.042390
   7 B :    0.081439
   8 B :    0.069509
   9 B :    0.042392
  10 B :    0.081451
  11 B :    0.069511
Sum of atomic charges:    0.0000000

--------------------------------
MULLIKEN REDUCED ORBITAL CHARGES
--------------------------------
  0 B s       :     3.344194  s :     3.344194
      pz      :     0.426237  p :     1.832283
      px      :     0.699599
      py      :     0.706448
      dz2     :     0.001536  d :     0.016875
      dxz     :     0.002293
      dyz     :     0.000063
      dx2y2   :     0.006683
      dxy     :     0.006301

  1 B s       :     3.344192  s :     3.344192
      pz      :     0.426240  p :     1.832281
      px      :     0.705698
      py      :     0.700343
      dz2     :     0.001536  d :     0.016875
      dxz     :     0.000618
      dyz     :     0.001738
      dx2y2   :     0.006428
      dxy     :     0.006555

  2 B s       :     3.344191  s :     3.344191
      pz      :     0.426239  p :     1.832278
      px      :     0.703755
      py      :     0.702285
      dz2     :     0.001536  d :     0.016875
      dxz     :     0.000622
      dyz     :     0.001733
      dx2y2   :     0.006364
      dxy     :     0.006619

  3 B s       :     3.790860  s :     3.790860
      pz      :     0.099673  p :     1.157772
      px      :     0.510568
      py      :     0.547530
      dz2     :     0.001423  d :     0.008969
      dxz     :     0.000543
      dyz     :     0.000040
      dx2y2   :     0.004108
      dxy     :     0.002854

  4 B s       :     3.822659  s :     3.822659
      pz      :     0.088206  p :     1.089436
      px      :     0.527042
      py      :     0.474188
      dz2     :     0.001057  d :     0.006460
      dxz     :     0.000095
      dyz     :     0.000147
      dx2y2   :     0.002445
      dxy     :     0.002717

  5 B s       :     3.811375  s :     3.811375
      pz      :     0.091145  p :     1.112054
      px      :     0.600334
      py      :     0.420574
      dz2     :     0.001165  d :     0.007061
      dxz     :     0.000050
      dyz     :     0.000270
      dx2y2   :     0.002878
      dxy     :     0.002699

  6 B s       :     3.790861  s :     3.790861
      pz      :     0.099674  p :     1.157780
      px      :     0.530711
      py      :     0.527394
      dz2     :     0.001423  d :     0.008969
      dxz     :     0.000226
      dyz     :     0.000357
      dx2y2   :     0.002746
      dxy     :     0.004216

  7 B s       :     3.822658  s :     3.822658
      pz      :     0.088206  p :     1.089443
      px      :     0.372868
      py      :     0.628370
      dz2     :     0.001057  d :     0.006460
      dxz     :     0.000200
      dyz     :     0.000042
      dx2y2   :     0.002958
      dxy     :     0.002204

  8 B s       :     3.811376  s :     3.811376
      pz      :     0.091144  p :     1.112054
      px      :     0.429011
      py      :     0.591899
      dz2     :     0.001165  d :     0.007061
      dxz     :     0.000265
      dyz     :     0.000055
      dx2y2   :     0.003252
      dxy     :     0.002325

  9 B s       :     3.790863  s :     3.790863
      pz      :     0.099675  p :     1.157777
      px      :     0.545872
      py      :     0.512230
      dz2     :     0.001423  d :     0.008969
      dxz     :     0.000106
      dyz     :     0.000478
      dx2y2   :     0.003589
      dxy     :     0.003373

 10 B s       :     3.822657  s :     3.822657
      pz      :     0.088202  p :     1.089432
      px      :     0.601942
      py      :     0.399288
      dz2     :     0.001057  d :     0.006460
      dxz     :     0.000068
      dyz     :     0.000174
      dx2y2   :     0.002340
      dxy     :     0.002822

 11 B s       :     3.811374  s :     3.811374
      pz      :     0.091140  p :     1.112054
      px      :     0.502022
      py      :     0.518891
      dz2     :     0.001165  d :     0.007061
      dxz     :     0.000165
      dyz     :     0.000155
      dx2y2   :     0.002235
      dxy     :     0.003341



                     *******************************
                     * LOEWDIN POPULATION ANALYSIS *
                     *******************************

----------------------
LOEWDIN ATOMIC CHARGES
----------------------
   0 B :   -0.123751
   1 B :   -0.123749
   2 B :   -0.123750
   3 B :   -0.023266
   4 B :    0.091118
   5 B :    0.055903
   6 B :   -0.023272
   7 B :    0.091112
   8 B :    0.055904
   9 B :   -0.023271
  10 B :    0.091119
  11 B :    0.055903

-------------------------------
LOEWDIN REDUCED ORBITAL CHARGES
-------------------------------
  0 B s       :     3.074277  s :     3.074277
      pz      :     0.427823  p :     2.011071
      px      :     0.812401
      py      :     0.770846
      dz2     :     0.005373  d :     0.038403
      dxz     :     0.003234
      dyz     :     0.000077
      dx2y2   :     0.013829
      dxy     :     0.015890

  1 B s       :     3.074276  s :     3.074276
      pz      :     0.427826  p :     2.011070
      px      :     0.781902
      py      :     0.801342
      dz2     :     0.005373  d :     0.038403
      dxz     :     0.000870
      dyz     :     0.002441
      dx2y2   :     0.015057
      dxy     :     0.014663

  2 B s       :     3.074277  s :     3.074277
      pz      :     0.427825  p :     2.011069
      px      :     0.780561
      py      :     0.802684
      dz2     :     0.005373  d :     0.038403
      dxz     :     0.000863
      dyz     :     0.002448
      dx2y2   :     0.015693
      dxy     :     0.014026

  3 B s       :     3.608035  s :     3.608035
      pz      :     0.103996  p :     1.398488
      px      :     0.623327
      py      :     0.671165
      dz2     :     0.003027  d :     0.016743
      dxz     :     0.000795
      dyz     :     0.000055
      dx2y2   :     0.008166
      dxy     :     0.004700

  4 B s       :     3.665585  s :     3.665585
      pz      :     0.087803  p :     1.231564
      px      :     0.600985
      py      :     0.542775
      dz2     :     0.002202  d :     0.011734
      dxz     :     0.000103
      dyz     :     0.000170
      dx2y2   :     0.003924
      dxy     :     0.005335

  5 B s       :     3.649308  s :     3.649308
      pz      :     0.092001  p :     1.281926
      px      :     0.712222
      py      :     0.477703
      dz2     :     0.002402  d :     0.012863
      dxz     :     0.000066
      dyz     :     0.000329
      dx2y2   :     0.005659
      dxy     :     0.004406

  6 B s       :     3.608036  s :     3.608036
      pz      :     0.103997  p :     1.398494
      px      :     0.650217
      py      :     0.644280
      dz2     :     0.003027  d :     0.016743
      dxz     :     0.000331
      dyz     :     0.000519
      dx2y2   :     0.004566
      dxy     :     0.008301

  7 B s       :     3.665584  s :     3.665584
      pz      :     0.087803  p :     1.231570
      px      :     0.411957
      py      :     0.731809
      dz2     :     0.002202  d :     0.011734
      dxz     :     0.000222
      dyz     :     0.000051
      dx2y2   :     0.005500
      dxy     :     0.003759

  8 B s       :     3.649308  s :     3.649308
      pz      :     0.092000  p :     1.281926
      px      :     0.493447
      py      :     0.696479
      dz2     :     0.002402  d :     0.012863
      dxz     :     0.000331
      dyz     :     0.000064
      dx2y2   :     0.005704
      dxy     :     0.004362

  9 B s       :     3.608037  s :     3.608037
      pz      :     0.103997  p :     1.398492
      px      :     0.668196
      py      :     0.626299
      dz2     :     0.003027  d :     0.016743
      dxz     :     0.000149
      dyz     :     0.000701
      dx2y2   :     0.006567
      dxy     :     0.006299

 10 B s       :     3.665586  s :     3.665586
      pz      :     0.087800  p :     1.231561
      px      :     0.702703
      py      :     0.441058
      dz2     :     0.002202  d :     0.011734
      dxz     :     0.000084
      dyz     :     0.000189
      dx2y2   :     0.004464
      dxy     :     0.004794

 11 B s       :     3.649307  s :     3.649307
      pz      :     0.091996  p :     1.281927
      px      :     0.579223
      py      :     0.610708
      dz2     :     0.002402  d :     0.012863
      dxz     :     0.000196
      dyz     :     0.000200
      dx2y2   :     0.003735
      dxy     :     0.006330



                      *****************************
                      * MAYER POPULATION ANALYSIS *
                      *****************************

  NA   - Mulliken gross atomic population
  ZA   - Total nuclear charge
  QA   - Mulliken gross atomic charge
  VA   - Mayer's total valence
  BVA  - Mayer's bonded valence
  FA   - Mayer's free valence

  ATOM       NA         ZA         QA         VA         BVA        FA
  0 B      5.1934     5.0000    -0.1934     3.2963     3.2963     0.0000
  1 B      5.1933     5.0000    -0.1933     3.2964     3.2964     0.0000
  2 B      5.1933     5.0000    -0.1933     3.2963     3.2963    -0.0000
  3 B      4.9576     5.0000     0.0424     1.9578     1.9578    -0.0000
  4 B      4.9186     5.0000     0.0814     1.8533     1.8533     0.0000
  5 B      4.9305     5.0000     0.0695     1.8989     1.8989    -0.0000
  6 B      4.9576     5.0000     0.0424     1.9578     1.9578     0.0000
  7 B      4.9186     5.0000     0.0814     1.8533     1.8533    -0.0000
  8 B      4.9305     5.0000     0.0695     1.8989     1.8989     0.0000
  9 B      4.9576     5.0000     0.0424     1.9578     1.9578    -0.0000
 10 B      4.9185     5.0000     0.0815     1.8532     1.8532     0.0000
 11 B      4.9305     5.0000     0.0695     1.8989     1.8989     0.0000

  Mayer bond orders larger than 0.100000
B(  0-B ,  1-B ) :   0.8280 B(  0-B ,  2-B ) :   0.8280 B(  0-B ,  3-B ) :   0.4907 
B(  0-B ,  4-B ) :   0.2779 B(  0-B ,  7-B ) :   0.1012 B(  0-B ,  8-B ) :   0.1087 
B(  0-B , 10-B ) :   0.1159 B(  0-B , 11-B ) :   0.3577 B(  1-B ,  2-B ) :   0.8280 
B(  1-B ,  4-B ) :   0.1159 B(  1-B ,  5-B ) :   0.3577 B(  1-B ,  6-B ) :   0.4907 
B(  1-B ,  7-B ) :   0.2779 B(  1-B , 10-B ) :   0.1012 B(  1-B , 11-B ) :   0.1087 
B(  2-B ,  4-B ) :   0.1012 B(  2-B ,  5-B ) :   0.1087 B(  2-B ,  7-B ) :   0.1159 
B(  2-B ,  8-B ) :   0.3577 B(  2-B ,  9-B ) :   0.4908 B(  2-B , 10-B ) :   0.2778 
B(  3-B ,  4-B ) :   0.4591 B(  3-B ,  8-B ) :   0.1004 B(  3-B , 11-B ) :   0.4633 
B(  4-B ,  5-B ) :   0.4638 B(  5-B ,  6-B ) :   0.4633 B(  5-B ,  9-B ) :   0.1004 
B(  6-B ,  7-B ) :   0.4591 B(  6-B , 11-B ) :   0.1004 B(  7-B ,  8-B ) :   0.4638 
B(  8-B ,  9-B ) :   0.4633 B(  9-B , 10-B ) :   0.4591 B( 10-B , 11-B ) :   0.4638 


-------
TIMINGS
-------

Total SCF time: 0 days 0 hours 0 min 13 sec 

Total time                  ....      13.765 sec
Sum of individual times     ....      13.317 sec  ( 96.7%)

SCF preparation             ....       0.590 sec  (  4.3%)
Fock matrix formation       ....      10.098 sec  ( 73.4%)
  Startup                   ....       0.035 sec  (  0.3% of F)
  Split-RI-J                ....       3.260 sec  ( 32.3% of F)
  XC integration            ....       6.152 sec  ( 60.9% of F)
    XC Preparation          ....       0.000 sec  (  0.0% of XC)
    Basis function eval.    ....       1.311 sec  ( 21.3% of XC)
    Density eval.           ....       0.732 sec  ( 11.9% of XC)
    XC-Functional eval.     ....       0.213 sec  (  3.5% of XC)
    XC-Potential eval.      ....       0.870 sec  ( 14.1% of XC)
Diagonalization             ....       0.000 sec  (  0.0%)
Density matrix formation    ....       0.490 sec  (  3.6%)
Total Energy calculation    ....       0.149 sec  (  1.1%)
Population analysis         ....       0.085 sec  (  0.6%)
Orbital Transformation      ....       0.119 sec  (  0.9%)
Orbital Orthonormalization  ....       0.000 sec  (  0.0%)
DIIS solution               ....       1.502 sec  ( 10.9%)
SOSCF solution              ....       0.283 sec  (  2.1%)
Finished LeanSCF after  13.8 sec

Maximum memory used throughout the entire LEANSCF-calculation: 9.4 MB


-------------------------------------------------------------------------------
                          DFT DISPERSION CORRECTION                            
                                                                               
                              DFTD3 V3.1  Rev 1                                
                          USING Becke-Johnson damping                          
-------------------------------------------------------------------------------
The BP86 functional is recognized
Active option DFTDOPT                   ...         4   

molecular C6(AA) [au] = 13814.678525 


            DFT-D V3
 parameters
 s6 scaling factor         :     1.0000 
 a1 scaling factor         :     0.3946 
 s8 scaling factor         :     3.2822 
 a2 scaling factor         :     4.8516 
 ad hoc parameters k1-k3   :    16.0000     1.3333    -4.0000 

 Edisp/kcal,au: -35.617017412408  -0.056759324098 
 E6   /kcal   : -10.591890413 
 E8   /kcal   : -25.025126999 
 % E8         :  70.261714252 

-------------------------   ----------------
Dispersion correction           -0.056759324
-------------------------   ----------------


-------------------------   --------------------
FINAL SINGLE POINT ENERGY      -296.436685129233
-------------------------   --------------------



           ************************************************************
           *        Program running with 8 parallel MPI-processes     *
           *              working on a common directory               *
           ************************************************************
------------------------------------------------------------------------------
                         ORCA SCF GRADIENT CALCULATION
------------------------------------------------------------------------------

Nuc. rep. gradient        (SHARK) ... done (  0.0 sec)
HCore & Overlap gradient  (SHARK) ... done (  0.1 sec)
Split-RIJ-J gradient      (SHARK) ... done (  0.3 sec)
XC gradient                       ... done (  0.7 sec)
Dispersion correction             ... done (  0.1 sec)

-------------------
DISPERSION GRADIENT
-------------------

   1   B   :   -0.007999009    0.000016217    0.000231623
   2   B   :    0.003985460   -0.006935454    0.000231623
   3   B   :    0.004013549    0.006919237    0.000231623
   4   B   :    0.000911905    0.000055868   -0.000033132
   5   B   :    0.000982610    0.000897045   -0.000106741
   6   B   :   -0.000014417    0.001254273   -0.000091750
   7   B   :   -0.000504336    0.000761799   -0.000033132
   8   B   :   -0.001268169    0.000402443   -0.000106741
   9   B   :   -0.001079023   -0.000639622   -0.000091750
  10   B   :   -0.000407569   -0.000817667   -0.000033132
  11   B   :    0.000285559   -0.001299488   -0.000106741
  12   B   :    0.001093441   -0.000614651   -0.000091750

Difference to translation invariance:
           :   -0.0000000000   -0.0000000000    0.0000000000

Difference to rotation invariance:
           :    0.0000000000   -0.0000000000   -0.0000000000

Norm of the Dispersion gradient    ...    0.0143077548
RMS gradient                       ...    0.0023846258
MAX gradient                       ...    0.0079990092

------------------
CARTESIAN GRADIENT
------------------

   1   B   :    0.019658734    0.000178712    0.010493711
   2   B   :   -0.009983193    0.016929027    0.010491493
   3   B   :   -0.009674437   -0.017105698    0.010490161
   4   B   :    0.043873890    0.006469270   -0.004041204
   5   B   :    0.022018873    0.028745624   -0.003083504
   6   B   :    0.009231430    0.037494629   -0.003367568
   7   B   :   -0.027538384    0.034768447   -0.004040239
   8   B   :   -0.035907157    0.004690567   -0.003081373
   9   B   :   -0.037081197   -0.010756669   -0.003368038
  10   B   :   -0.016338182   -0.041230084   -0.004041912
  11   B   :    0.013880723   -0.033448387   -0.003083392
  12   B   :    0.027858899   -0.026735438   -0.003368134

Difference to translation invariance:
           :    0.0000000000    0.0000000000    0.0000000000

Difference to rotation invariance:
           :    0.0000173487    0.0000109099   -0.0000049330

Norm of the Cartesian gradient     ...    0.1261276167
RMS gradient                       ...    0.0210212694
MAX gradient                       ...    0.0438738898

-------
TIMINGS
-------

Total SCF gradient time     ....        1.090 sec

Densities                   ....       0.001 sec  (  0.1%)
One electron gradient       ....       0.053 sec  (  4.8%)
RI-J Coulomb gradient       ....       0.322 sec  ( 29.5%)
XC gradient                 ....       0.653 sec  ( 59.9%)

Maximum memory used throughout the entire SCFGRAD-calculation: 29.2 MB
------------------------------------------------------------------------------
                         ORCA GEOMETRY RELAXATION STEP
------------------------------------------------------------------------------

Reading the OPT-File                    .... done
Getting information on internals        .... done
Copying old internal coords+grads       .... done
Making the new internal coordinates     .... (2022 redundants) done
Validating the new internal coordinates .... (2022 redundants) done
Calculating the B-matrix                .... done
Calculating the G,G- and P matrices     .... done
Transforming gradient to internals      .... done
Projecting the internal gradient        .... done
Number of atoms                         ....  12
Number of internal coordinates          .... 186
Current Energy                          ....  -296.436685129 Eh
Current gradient norm                   ....     0.126127617 Eh/bohr
Maximum allowed component of the step   ....  0.300
Current trust radius                    ....  0.300
Evaluating the initial hessian          ....  (Almloef) done
Projecting the Hessian                  .... done
Forming the augmented Hessian           .... done
Diagonalizing the augmented Hessian     .... done
Last element of RFO vector              ....  0.740813809
Lowest eigenvalues of augmented Hessian:
 -0.109877553  0.010126497  0.010127726  0.010134018  0.010307072
Length of the computed step             ....  0.906719638
Warning: the length of the step is outside the trust region - taking restricted step instead
The input lambda is                     ....     0.009126
   iter:   5  x=   -0.006627  g=10855.079893 f(x)=    66.599264
   iter:  10  x=   -0.132791  g=   24.511804 f(x)=     1.175477
   iter:  15  x=   -0.379826  g=    0.457351 f(x)=     0.002196
The output lambda is                    ....    -0.379914 (18 iterations)
The final length of the internal step   ....  0.300000000
Converting the step to Cartesian space:
 Initial RMS(Int)=    0.0219970673
Transforming coordinates:
 Iter   0:  RMS(Cart)=    0.0495885848 RMS(Int)=    0.0219949020
done
Storing new coordinates                 .... done

                                .--------------------.
          ----------------------|Geometry convergence|-------------------------
          Item                value                   Tolerance       Converged
          ---------------------------------------------------------------------
          RMS gradient        0.0090476107            0.0001000000      NO
          MAX gradient        0.0376591533            0.0003000000      NO
          RMS step            0.0219970673            0.0020000000      NO
          MAX step            0.0822939189            0.0040000000      NO
          -------------------------------------------------------------------------
          ........................................................
          Max(Bonds)      0.0435      Max(Angles)    0.43
          Max(Dihed)        0.14      Max(Improp)    0.00
          ---------------------------------------------------------------------

The optimization has not yet converged - more geometry cycles are needed


    ---------------------------------------------------------------------------
                         Redundant Internal Coordinates
                            (Angstroem and degrees)

        Definition                    Value    dE/dq     Step     New-Value
    ----------------------------------------------------------------------------
     1. B(B   1,B   0)                2.0000  0.037544 -0.0434    1.9566   
     2. B(B   2,B   0)                2.0000  0.037659 -0.0435    1.9565   
     3. B(B   2,B   1)                2.0000  0.037542 -0.0434    1.9566   
     4. B(B   3,B   0)                2.5624  0.024004 -0.0328    2.5296   
     5. B(B   4,B   0)                3.0142  0.021499 -0.0303    2.9839   
     6. B(B   4,B   3)                2.5132  0.024875 -0.0321    2.4811   
     7. B(B   5,B   4)                2.5132  0.027975 -0.0364    2.4768   
     8. B(B   5,B   1)                2.8278  0.021750 -0.0306    2.7972   
     9. B(B   6,B   5)                2.5132  0.026247 -0.0341    2.4791   
    10. B(B   6,B   1)                2.5624  0.024059 -0.0329    2.5295   
    11. B(B   7,B   1)                3.0142  0.021476 -0.0302    2.9840   
    12. B(B   7,B   6)                2.5132  0.024852 -0.0321    2.4811   
    13. B(B   8,B   2)                2.8278  0.021706 -0.0305    2.7973   
    14. B(B   8,B   7)                2.5132  0.027988 -0.0364    2.4768   
    15. B(B   9,B   8)                2.5132  0.026406 -0.0343    2.4789   
    16. B(B   9,B   2)                2.5624  0.023985 -0.0328    2.5296   
    17. B(B  10,B   9)                2.5132  0.024795 -0.0320    2.4812   
    18. B(B  10,B   2)                3.0142  0.021524 -0.0303    2.9839   
    19. B(B  11,B   3)                2.5132  0.026300 -0.0342    2.4790   
    20. B(B  11,B   0)                2.8278  0.021737 -0.0305    2.7973   
    21. B(B  11,B  10)                2.5132  0.028001 -0.0364    2.4768   
    22. A(B   3,B   0,B  11)           55.32  0.001194   -0.12     55.20   
    23. A(B   1,B   0,B  11)          160.39 -0.001862    0.21    160.61   
    24. A(B   2,B   0,B   4)          147.30 -0.000700    0.05    147.35   
    25. A(B   1,B   0,B   3)          140.69  0.000490   -0.07    140.62   
    26. A(B   1,B   0,B   2)           60.00 -0.000018    0.00     60.00   
    27. A(B   4,B   0,B  11)          107.86  0.002250   -0.23    107.63   
    28. A(B   1,B   0,B   4)           88.21 -0.000624    0.04     88.25   
    29. A(B   2,B   0,B   3)          156.47 -0.000624    0.08    156.55   
    30. A(B   3,B   0,B   4)           52.82  0.001137   -0.11     52.71   
    31. A(B   2,B   0,B  11)          102.15 -0.001830    0.21    102.35   
    32. A(B   0,B   1,B   5)          102.15 -0.001837    0.21    102.35   
    33. A(B   0,B   1,B   6)          156.47 -0.000645    0.08    156.55   
    34. A(B   2,B   1,B   5)          160.39 -0.001803    0.20    160.60   
    35. A(B   0,B   1,B   2)           60.00  0.000035   -0.01     59.99   
    36. A(B   5,B   1,B   6)           55.32  0.001176   -0.12     55.20   
    37. A(B   2,B   1,B   6)          140.69  0.000475   -0.07    140.62   
    38. A(B   5,B   1,B   7)          107.86  0.002227   -0.22    107.63   
    39. A(B   6,B   1,B   7)           52.82  0.001132   -0.11     52.71   
    40. A(B   2,B   1,B   7)           88.21 -0.000639    0.04     88.25   
    41. A(B   0,B   1,B   7)          147.30 -0.000665    0.04    147.34   
    42. A(B   9,B   2,B  10)           52.82  0.001118   -0.11     52.71   
    43. A(B   0,B   2,B  10)           88.21 -0.000646    0.04     88.25   
    44. A(B   0,B   2,B   1)           60.00 -0.000017    0.00     60.00   
    45. A(B   1,B   2,B   9)          156.47 -0.000594    0.08    156.55   
    46. A(B   0,B   2,B   8)          160.39 -0.001824    0.21    160.60   
    47. A(B   1,B   2,B  10)          147.30 -0.000733    0.05    147.35   
    48. A(B   8,B   2,B   9)           55.32  0.001223   -0.13     55.19   
    49. A(B   1,B   2,B   8)          102.15 -0.001816    0.21    102.35   
[...]
      dxy     :     0.014813

  6 B s       :     3.364951  s :     3.364951
      pz      :     0.438771  p :     1.860492
      px      :     0.742445
      py      :     0.679276
      dz2     :     0.003874  d :     0.044716
      dxz     :     0.007199
      dyz     :     0.005558
      dx2y2   :     0.014214
      dxy     :     0.013871

  7 B s       :     3.194131  s :     3.194131
      pz      :     0.439282  p :     1.572438
      px      :     0.563684
      py      :     0.569472
      dz2     :     0.003390  d :     0.047706
      dxz     :     0.006796
      dyz     :     0.006837
      dx2y2   :     0.015446
      dxy     :     0.015237

  8 B s       :     3.364729  s :     3.364729
      pz      :     0.438809  p :     1.860576
      px      :     0.618859
      py      :     0.802908
      dz2     :     0.003877  d :     0.044721
      dxz     :     0.009580
      dyz     :     0.003180
      dx2y2   :     0.014819
      dxy     :     0.013265

  9 B s       :     3.364553  s :     3.364553
      pz      :     0.438636  p :     1.860511
      px      :     0.813161
      py      :     0.608714
      dz2     :     0.003872  d :     0.044724
      dxz     :     0.003061
      dyz     :     0.009696
      dx2y2   :     0.014719
      dxy     :     0.013377

 10 B s       :     3.194187  s :     3.194187
      pz      :     0.439031  p :     1.572346
      px      :     0.569349
      py      :     0.563966
      dz2     :     0.003388  d :     0.047703
      dxz     :     0.006830
      dyz     :     0.006796
      dx2y2   :     0.015416
      dxy     :     0.015274

 11 B s       :     3.364537  s :     3.364537
      pz      :     0.438609  p :     1.860421
      px      :     0.665374
      py      :     0.756439
      dz2     :     0.003874  d :     0.044721
      dxz     :     0.005908
      dyz     :     0.006848
      dx2y2   :     0.014035
      dxy     :     0.014056



                     *******************************
                     * LOEWDIN POPULATION ANALYSIS *
                     *******************************

----------------------
LOEWDIN ATOMIC CHARGES
----------------------
   0 B :   -0.058316
   1 B :   -0.058503
   2 B :   -0.058325
   3 B :   -0.000464
   4 B :    0.059297
   5 B :   -0.000452
   6 B :   -0.000453
   7 B :    0.059377
   8 B :   -0.000512
   9 B :   -0.000576
  10 B :    0.059461
  11 B :   -0.000533

-------------------------------
LOEWDIN REDUCED ORBITAL CHARGES
-------------------------------
  0 B s       :     2.558680  s :     2.558680
      pz      :     0.654161  p :     2.277715
      px      :     0.838196
      py      :     0.785358
      dz2     :     0.021102  d :     0.221922
      dxz     :     0.025690
      dyz     :     0.025356
      dx2y2   :     0.080450
      dxy     :     0.069323

  1 B s       :     2.558598  s :     2.558598
      pz      :     0.654209  p :     2.277888
      px      :     0.787010
      py      :     0.836669
      dz2     :     0.021108  d :     0.222018
      dxz     :     0.025369
      dyz     :     0.025677
      dx2y2   :     0.078796
      dxy     :     0.071068

  2 B s       :     2.558661  s :     2.558661
      pz      :     0.654144  p :     2.277738
      px      :     0.810248
      py      :     0.813346
      dz2     :     0.021106  d :     0.221926
      dxz     :     0.025517
      dyz     :     0.025535
      dx2y2   :     0.065454
      dxy     :     0.084315

  3 B s       :     2.787939  s :     2.787939
      pz      :     0.474112  p :     2.104390
      px      :     0.669913
      py      :     0.960365
      dz2     :     0.011300  d :     0.108135
      dxz     :     0.018101
      dyz     :     0.009139
      dx2y2   :     0.031799
      dxy     :     0.037796

  4 B s       :     2.735689  s :     2.735689
      pz      :     0.462408  p :     2.075353
      px      :     0.814143
      py      :     0.798802
      dz2     :     0.011431  d :     0.129662
      dxz     :     0.014921
      dyz     :     0.014718
      dx2y2   :     0.047182
      dxy     :     0.041410

  5 B s       :     2.787993  s :     2.787993
      pz      :     0.473979  p :     2.104337
      px      :     0.965048
      py      :     0.665310
      dz2     :     0.011299  d :     0.108122
      dxz     :     0.008693
      dyz     :     0.018527
      dx2y2   :     0.031955
      dxy     :     0.037648

  6 B s       :     2.787955  s :     2.787955
      pz      :     0.474104  p :     2.104385
      px      :     0.841134
      py      :     0.789146
      dz2     :     0.011302  d :     0.108114
      dxz     :     0.015269
      dyz     :     0.011954
      dx2y2   :     0.035936
      dxy     :     0.033653

  7 B s       :     2.735779  s :     2.735779
      pz      :     0.462441  p :     2.075213
      px      :     0.674235
      py      :     0.938537
      dz2     :     0.011428  d :     0.129631
      dxz     :     0.013038
      dyz     :     0.016612
      dx2y2   :     0.042579
      dxy     :     0.045973

  8 B s       :     2.787919  s :     2.787919
      pz      :     0.474225  p :     2.104460
      px      :     0.706678
      py      :     0.923557
      dz2     :     0.011302  d :     0.108133
      dxz     :     0.019560
      dyz     :     0.007682
      dx2y2   :     0.037098
      dxy     :     0.032491

  9 B s       :     2.787895  s :     2.787895
      pz      :     0.474039  p :     2.104542
      px      :     0.934314
      py      :     0.696189
      dz2     :     0.011298  d :     0.108139
      dxz     :     0.007481
      dyz     :     0.019750
      dx2y2   :     0.036660
      dxy     :     0.032951

 10 B s       :     2.735808  s :     2.735808
      pz      :     0.462213  p :     2.075099
      px      :     0.930930
      py      :     0.681956
      dz2     :     0.011427  d :     0.129631
      dxz     :     0.016491
      dyz     :     0.013135
      dx2y2   :     0.043100
      dxy     :     0.045479

 11 B s       :     2.787926  s :     2.787926
      pz      :     0.474030  p :     2.104476
      px      :     0.773564
      py      :     0.856882
      dz2     :     0.011298  d :     0.108131
      dxz     :     0.012600
      dyz     :     0.014634
      dx2y2   :     0.035343
      dxy     :     0.034256



                      *****************************
                      * MAYER POPULATION ANALYSIS *
                      *****************************

  NA   - Mulliken gross atomic population
  ZA   - Total nuclear charge
  QA   - Mulliken gross atomic charge
  VA   - Mayer's total valence
  BVA  - Mayer's bonded valence
  FA   - Mayer's free valence

  ATOM       NA         ZA         QA         VA         BVA        FA
  0 B      4.6467     5.0000     0.3533     2.8185     2.8185    -0.0000
  1 B      4.6446     5.0000     0.3554     2.8153     2.8153     0.0000
  2 B      4.6461     5.0000     0.3539     2.8175     2.8175    -0.0000
  3 B      5.2698     5.0000    -0.2698     3.2798     3.2798    -0.0000
  4 B      4.8145     5.0000     0.1855     3.3153     3.3153    -0.0000
  5 B      5.2702     5.0000    -0.2702     3.2790     3.2790    -0.0000
  6 B      5.2702     5.0000    -0.2702     3.2791     3.2791     0.0000
  7 B      4.8143     5.0000     0.1857     3.3150     3.3150    -0.0000
  8 B      5.2700     5.0000    -0.2700     3.2797     3.2797    -0.0000
  9 B      5.2698     5.0000    -0.2698     3.2798     3.2798    -0.0000
 10 B      4.8142     5.0000     0.1858     3.3151     3.3151    -0.0000
 11 B      5.2697     5.0000    -0.2697     3.2799     3.2799    -0.0000

  Mayer bond orders larger than 0.100000
B(  0-B ,  1-B ) :   0.4777 B(  0-B ,  2-B ) :   0.4786 B(  0-B ,  3-B ) :   0.5075 
B(  0-B ,  4-B ) :   0.4396 B(  0-B , 10-B ) :   0.4394 B(  0-B , 11-B ) :   0.5075 
B(  1-B ,  2-B ) :   0.4773 B(  1-B ,  4-B ) :   0.4393 B(  1-B ,  5-B ) :   0.5066 
B(  1-B ,  6-B ) :   0.5067 B(  1-B ,  7-B ) :   0.4390 B(  2-B ,  7-B ) :   0.4395 
B(  2-B ,  8-B ) :   0.5073 B(  2-B ,  9-B ) :   0.5072 B(  2-B , 10-B ) :   0.4393 
B(  3-B ,  4-B ) :   1.0806 B(  3-B , 11-B ) :   1.4827 B(  4-B ,  5-B ) :   1.0808 
B(  5-B ,  6-B ) :   1.4830 B(  6-B ,  7-B ) :   1.0807 B(  7-B ,  8-B ) :   1.0807 
B(  8-B ,  9-B ) :   1.4829 B(  9-B , 10-B ) :   1.0806 B( 10-B , 11-B ) :   1.0805 


-------
TIMINGS
-------

Total SCF time: 0 days 0 hours 0 min 5 sec 

Total time                  ....       5.385 sec
Sum of individual times     ....       4.929 sec  ( 91.5%)

SCF preparation             ....       0.727 sec  ( 13.5%)
Fock matrix formation       ....       3.467 sec  ( 64.4%)
  Startup                   ....       0.013 sec  (  0.4% of F)
  Split-RI-J                ....       1.132 sec  ( 32.6% of F)
  XC integration            ....       2.352 sec  ( 67.8% of F)
    XC Preparation          ....       0.000 sec  (  0.0% of XC)
    Basis function eval.    ....       0.466 sec  ( 19.8% of XC)
    Density eval.           ....       0.327 sec  ( 13.9% of XC)
    XC-Functional eval.     ....       0.054 sec  (  2.3% of XC)
    XC-Potential eval.      ....       0.349 sec  ( 14.8% of XC)
Diagonalization             ....       0.000 sec  (  0.0%)
Density matrix formation    ....       0.192 sec  (  3.6%)
Total Energy calculation    ....       0.020 sec  (  0.4%)
Population analysis         ....       0.237 sec  (  4.4%)
Orbital Transformation      ....       0.016 sec  (  0.3%)
Orbital Orthonormalization  ....       0.000 sec  (  0.0%)
DIIS solution               ....       0.032 sec  (  0.6%)
SOSCF solution              ....       0.237 sec  (  4.4%)
Finished LeanSCF after   5.7 sec

Maximum memory used throughout the entire LEANSCF-calculation: 13.5 MB


-------------------------------------------------------------------------------
                          DFT DISPERSION CORRECTION                            
                                                                               
                              DFTD3 V3.1  Rev 1                                
                          USING Becke-Johnson damping                          
-------------------------------------------------------------------------------
The BP86 functional is recognized
Active option DFTDOPT                   ...         4   

molecular C6(AA) [au] = 4351.684625 


            DFT-D V3
 parameters
 s6 scaling factor         :     1.0000 
 a1 scaling factor         :     0.3946 
 s8 scaling factor         :     3.2822 
 a2 scaling factor         :     4.8516 
 ad hoc parameters k1-k3   :    16.0000     1.3333    -4.0000 

 Edisp/kcal,au: -20.738173735230  -0.033048379953 
 E6   /kcal   :  -5.977260011 
 E8   /kcal   : -14.760913724 
 % E8         :  71.177500549 

-------------------------   ----------------
Dispersion correction           -0.033048380
-------------------------   ----------------


-------------------------   --------------------
FINAL SINGLE POINT ENERGY      -297.750640447949
-------------------------   --------------------

                                *** OPTIMIZATION RUN DONE ***



           ************************************************************
           *        Program running with 8 parallel MPI-processes     *
           *              working on a common directory               *
           ************************************************************

------------------------------------------------------------------------------
                              ORCA PROPERTY CALCULATIONS
------------------------------------------------------------------------------

GBWName                                 ... quasi_planar_nn2.00.gbw
Number of atoms                         ...     12
Number of basis functions               ...    168
Max core memory                         ...   2500 MB

Electric properties:
Dipole moment                           ... YES
Quadrupole moment                       ...  NO
Static polarizability (Dipole/Dipole)   ...  NO
Static polarizability (Dipole/Quad.)    ...  NO
Static polarizability (Quad./Quad.)     ...  NO
Static polarizability (Velocity)        ...  NO
Static hyperpolarizability              ...  NO

Atomic electric properties:
Dipole moment                           ...  NO
Quadrupole moment                       ...  NO
Static polarizability                   ...  NO

Choice of electric origin               ... Center of mass
Position of electric origin             ...    -0.000000     0.000000    -0.000000

General magnetic properties:
Magnetizability                         ...  NO

EPR properties:
g-Tensor (aka g-matrix)                 ...  NO
Zero-Field splitting spin-orbit         ...  NO
Zero-field splitting spin-spin          ...  NO
Hyperfine couplings                     ...  NO (   0 nuclei)
Quadrupole couplings                    ...  NO (   0 nuclei)
Contact density                         ...  NO (   0 nuclei)

NMR properties:
Chemical shifts                         ...  NO (   0 nuclei)
Spin-rotation constants                 ...  NO (   0 nuclei)
Spin-spin couplings                     ...  NO (   0 nuclei,    0 pairs)

Choice of magnetic origin               ... GIAO
Position of magnetic origin             ...     0.000000     0.000000     0.000000

Properties with geometric perturbations:
SCF Hessian                             ...  NO
IR spectrum                             ...  NO
VCD spectrum                            ...  NO
X-ray spectroscopy properties:
SCF XES/XAS/RIXS spectra                ...  NO

SCF SOC stabilization energy            ...  NO
Diagonal Born-Oppenheimer correction    ...  NO

-------------
DIPOLE MOMENT
-------------

Method             : SCF
Type of density    : Electron Density
Multiplicity       :   1
Irrep              :   0
Energy             :  -297.7175920679961791 Eh
Basis              : AO
                                X                 Y                 Z
Electronic contribution:     -0.000196607      -0.000134663      -0.776219019
Nuclear contribution   :     -0.000000000       0.000000000       0.000000000
                        -----------------------------------------
Total Dipole Moment    :     -0.000196607      -0.000134663      -0.776219019
                        -----------------------------------------
Magnitude (a.u.)       :      0.776219055
Magnitude (Debye)      :      1.972992043



--------------------
Rotational spectrum 
--------------------
 
Rotational constants in cm-1:             0.058817             0.058804             0.030096 
Rotational constants in MHz :          1763.278631          1762.890278           902.268991 

Dipole components along the rotational axes: 
x,y,z [a.u.] :    -0.000326    -0.000012    -0.776219 
x,y,z [Debye]:    -0.000829    -0.000031    -1.972992 

 

Dipole moment calculation done in   0.1 sec 

Maximum memory used throughout the entire PROP-calculation: 10.6 MB

--------------------------------
SUGGESTED CITATIONS FOR THIS RUN
--------------------------------

Below you find a list of papers that are relevant to this ORCA run
We neither can nor want to force you to cite these papers, but we appreciate if you do
You receive ORCA, which is the product of decades of hard work by many enthusiastic individuals, for free
The only thing we kindly ask in return is that you cite our papers,
We deeply appreciate it, if you show your appreciation for ORCA by not just citing the generic ORCA reference.

Please note that relegating all ORCA citations to the supporting information does *not* help us.
SI sections are not indexed - citations you put there will not count into any citation statistics
But we need these citations in order to attract the funding resources that allow us to do what we are doing

Therefore, if you are a happy ORCA user, please consider citing a few of the papers listed below in the main body of your paper

In addition to the list printed below, the program has created the file quasi_planar_nn2.00.bibtex that contains the list in bibtex format
You can import this file easily into all common literature databanks and citation aid programs

It goes without saying that in many instances, there are alternative algorithms to achieve similar
results as the ones you have gotten from ORCA. It is, of course, also the case that in some instances
ORCA just re-implements algorithms worked out by others. We are fully aware of that and we are also
fully appreciative of our colleagues work. Hence this citation list should not be read as indicating
that the listed papers, which are focused on our own work, are the only ones worth citing. It simply
meant to make it easier for users to cite ORCA specific papers. It is not a substitute for doing your
own literature research and citing the relevant literature in a scientifically appropriate manner.

List of essential papers. We consider these as the minimum necessary citations

  1. Neese, F.
     Software update: the ORCA program system, version 6.0
     WIRES Comput. Molec. Sci. 2025 15(1), e70019
     doi.org/10.1002/wcms.70019

List of papers to cite with high priority. The work reported in these papers was absolutely
necessary for this run to complete.
Our perspective: the developers of density functionals and basis sets usually get cited in chemistry papers
Good! But without the algorithms to do something with them, the functionals or basis sets would not do anything.
Hence, in our opinion, the algorithm design and method developments papers are equally worthy of getting cited

  1. Neese, F.
     An improvement of the resolution of the identity approximation for the formation of the Coulomb matrix
     J. Comp. Chem. 2003 24(14), 1740-1747
     doi.org/10.1002/jcc.10318
  2. Grimme, S.; Antony, J.; Ehrlich, S.; Krieg, H.
     A consistent and accurate ab initio parametrization of density functional dispersion correction (DFT-D) for the 94 elements H-Pu
     J. Chem. Phys. 2010 132 , 154104
     doi.org/10.1063/1.3382344
  3. Grimme, S.; Ehrlich, S.; Goerigk, L.
     Effect of the damping function in dispersion corrected density functional theory
     J. Comput. Chem. 2011 32(7), 1456-1465
     doi.org/10.1002/jcc.21759
  4. Neese, F.
     The SHARK Integral Generation and Digestion System
     J. Comp. Chem. 2022 44(3), 381
     doi.org/10.1002/jcc.26942

List of suggested additional citations. These are papers that are important in the 'surrounding' of 
of this run, or papers that preceded the highly important papers. If you like your results we are grateful for a citation.

  1. Neese, F.
     The ORCA program system
     WIRES Comput. Molec. Sci. 2012 2(1), 73-78
     doi.org/10.1002/wcms.81
  2. Neese, F.
     Software update: the ORCA program system, version 4.0
     WIRES Comput. Molec. Sci. 2018 8(1), 1-6
     doi.org/10.1002/wcms.1327
  3. Neese, F.; Wennmohs, F.; Becker, U.; Riplinger, C.
     The ORCA quantum chemistry program package
     J. Chem. Phys. 2020 152(22), 224108
     doi.org/10.1063/5.0004608
  4. Neese, F.
     Software update: The ORCA program system—Version 5.0
     WIRES Comput. Molec. Sci. 2022 12(1), e1606
     doi.org/10.1002/wcms.1606

List of optional additional citations

  1. Neese, F.
     Approximate second-order SCF convergence for spin unrestricted wavefunctions
     Chem. Phys. Lett. 2000 325(1-3), 93-98
     doi.org/10.1016/s0009-2614(00)00662-x

Timings for individual modules:

Sum of individual times          ...      987.628 sec (=  16.460 min)
Startup calculation              ...      128.413 sec (=   2.140 min)  13.0 %
SCF iterations                   ...      682.179 sec (=  11.370 min)  69.1 %
Property calculations            ...        0.783 sec (=   0.013 min)   0.1 %
SCF Gradient evaluation          ...      174.339 sec (=   2.906 min)  17.7 %
Geometry relaxation              ...        1.914 sec (=   0.032 min)   0.2 %
                             ****ORCA TERMINATED NORMALLY****
TOTAL RUN TIME: 0 days 0 hours 17 minutes 28 seconds 497 msec
