
                                 *****************
                                 * O   R   C   A *
                                 *****************

                                            #,                                       
                                            ###                                      
                                            ####                                     
                                            #####                                    
                                            ######                                   
                                           ########,                                 
                                     ,,################,,,,,                         
                               ,,#################################,,                 
                          ,,##########################################,,             
                       ,#########################################, ''#####,          
                    ,#############################################,,   '####,        
                  ,##################################################,,,,####,       
                ,###########''''           ''''###############################       
              ,#####''   ,,,,##########,,,,          '''####'''          '####       
            ,##' ,,,,###########################,,,                        '##       
           ' ,,###''''                  '''############,,,                           
         ,,##''                                '''############,,,,        ,,,,,,###''
      ,#''                                            '''#######################'''  
     '                                                          ''''####''''         
             ,#######,   #######,   ,#######,      ##                                
            ,#'     '#,  ##    ##  ,#'     '#,    #''#        ,####,    ,#,          
            ##       ##  ##   ,#'  ##            #'  '#       #'       ,# #          
            ##       ##  #######   ##           ,######,      #####,      #          
            '#,     ,#'  ##    ##  '#,     ,#' ,#      #,     #,   #      #          
             '#######'   ##     ##  '#######'  #'      '#     '####' #    #          



                #########################################################
                #                        -***-                          #
                #          Department of theory and spectroscopy        #
                #                                                       #
                #                      Frank Neese                      #
                #                                                       #
                #     Directorship, Architecture, Infrastructure        #
                #                    SHARK, DRIVERS                     #
                #        Core code/Algorithms in most modules           #
                #                                                       #
                #        Max Planck Institute fuer Kohlenforschung      #
                #                Kaiser Wilhelm Platz 1                 #
                #                 D-45470 Muelheim/Ruhr                 #
                #                      Germany                          #
                #                                                       #
                #                  All rights reserved                  #
                #                        -***-                          #
                #########################################################


                         Program Version 6.1.1  -  RELEASE   -
                                (GIT: $487d211c$)
                          ($2025-11-21 10:33:24 +0100$)
                                                                         
                                  - NO-DMRG VERSION -                    
                                                                         


 With contributions from (in alphabetic order):
[Max-Planck-Institut fuer Kohlenforschung]                               
  Daniel Aravena         : Magnetic Suceptibility                        
  Michael Atanasov       : Ab Initio Ligand Field Theory (pilot matlab implementation)
  Alexander A. Auer      : GIAO ZORA, VPT2 properties, NMR spectrum      
  Ute Becker             : All parallelization in ORCA, NUMFREQ, NUMCALC 
  Giovanni Bistoni       : ED, misc. LED, open-shell LED, HFLD           
  Dmytro Bykov           : pre 5.0 version of the SCF Hessian            
  Marcos Casanova-Páez   : Triplet and SCS-CIS(D). UHF-(DLPNO)-IP/EA/STEOM-CCSD. UHF-CVS-IP/STEOM-CCSD   
  Vijay G. Chilkuri      : MRCI spin determinant printing, contributions to CSF-ICE 
  Pauline Colinet        : FMM embedding                                 
  Dipayan Datta          : RHF DLPNO-CCSD density                        
  Achintya Kumar Dutta   : EOM-CC, STEOM-CC                              
  Nicolas Foglia         : Exact transition moments, OPA infrastructure, MCD improvements    
  Dmitry Ganyushin       : Spin-Orbit,Spin-Spin,Magnetic field MRCI      
  Miquel Garcia-Rates    : C-PCM and meta-GGA Hessian, CCSD/C-PCM, Gaussian charge scheme 
  Tiago L. C. Gouveia    : GS-ROHF, GS-ROCIS                             
  Yang Guo               : DLPNO-NEVPT2, F12-NEVPT2, CIM, IAO-localization        
  Andreas Hansen         : Spin unrestricted coupled pair/coupled cluster methods 
  Ingolf Harden          : AUTO-CI MPn and infrastructure                
  Benjamin Helmich-Paris : MC-RPA, TRAH-(SCF,CASSCF), AVAS, COSX integrals, SCF dyn. polar., MC-PDFT, srDFT 
  Lee Huntington         : MR-EOM, pCC                                   
  Robert Izsak           : Overlap fitted RIJCOSX, COSX-SCS-MP3, EOM     
  Riya Kayal             : Wick's Theorem for AUTO-CI, AUTO-CI UHF-CCSDT 
  Emily Kempfer          : AUTO-CI RHF CISDT and CCSDT, approximate NEVPT4
  Christian Kollmar      : KDIIS, OOCD, Brueckner-CCSD(T), CCSD density, CASPT2, CASPT2-K, improved NEVPT2 
  Axel Koslowski         : Symmetry handling                             
  Simone Kossmann        : meta-GGA functionals, TD-DFT gradient, OOMP2, (MP2 Hessian; deprecated post 5.0) 
  Lucas Lang             : DCDCAS, Hyperfine gauge corrections, ICE-SOC+SSC
  Marvin Lechner         : AUTO-CI (C++ implementation), FIC-MRCC        
  Spencer Leger          : CASSCF response                               
  Dagmar Lenk            : GEPOL surface, SMD, ORCA-2-JSON               
  Dimitrios Liakos       : Extrapolation schemes; Compound Job, Property file
  Dimitrios Manganas     : Further ROCIS development; embedding schemes. LFT, Crystal Embedding 
  Dimitrios Pantazis     : SARC Basis sets                               
  Anastasios Papadopoulos: AUTO-CI, single reference methods and gradients 
  Taras Petrenko         : pre 6.0 DFT Hessian and TD-DFT gradient,  ECA, NRVS 
  Petra Pikulova         : Analytic Raman intensities                    
  Peter Pinski           : DLPNO-MP2, DLPNO-MP2 Gradient                 
  Shashank Vittal Rao    : ES-AILFT, MagRelax                            
  Christoph Reimann      : Effective Core Potentials                     
  Marius Retegan         : Local ZFS, SOC                                
  Christoph Riplinger    : Optimizer, TS searches, QM/MM, DLPNO-CCSD(T), (RO)-DLPNO pert. Triples 
  Michael Roemelt        : Original ROCIS implementation, recursive CI coupling coefficients
  Masaaki Saitow         : Open-shell DLPNO-CCSD energy and density      
  Barbara Sandhoefer     : DKH picture change effects                    
  Yorick L. A. Schmerwitz: GMF and freeze-and-release deltaSCF, NEB S-IDPP initial path                    
  Kantharuban Sivalingam : CASSCF convergence/infrastructure, NEVPT2, NEVPT3, NEVPT4(SD), FIC-MRCI and CEPA variants
  Bernardo de Souza      : ESD, SOC TD-DFT                               
  Georgi L. Stoychev     : AutoAux, RI-MP2 NMR, DLPNO-MP2 response, X2C  
  Van Anh Tran           : RI-MP2 g-tensors                              
  Willem Van den Heuvel  : Paramagnetic NMR                              
  Zikuan Wang            : NOTCH, Electric field optimization            
  Frank Wennmohs         : Technical directorship and infrastructure     
  Hang Xu                : AUTO-CI-Response properties                   
                                                                         
[FACCTs GmbH]                                                            
  Markus Bursch, Nicolas Foglia, Miquel Garcia-Rates, Ingolf Harden, Hagen Neugebauer, Anastasios Papadopoulos, 
  Christoph Riplinger, Bernardo de Souza, Georgi L. Stoychev                                                    
                                                                 
  APM, various basis sets, CI-OPT, improved COSX, DLPNO-Multilevel,           
  DOCKER, DRACO, updates on ESD, Fragmentator, GOAT, IRC, LR-CPCM, L-BFGS, MBIS, meta-GGA TD-DFT gradient, ML-optimized integration grids, 
  MM, NACMEs, nearIR, NEB, NEB-TS, NL-DFT gradient (VV10), 2- and 3-layer-ONIOM, interface openCOSMO-RS, QMMM,   
  Crystal-QMMM, RESP, rigid body optimization, SF, symmetry and pop. for TD-DFT, various functionals, SOLVATOR                                   
                                                                         
[Other institutions]                                                     
  V. Asgeirsson          : NEB                                           
  Christoph Bannwarth    : sTDA-DFT, sTD-DFT, PBEh-3c, B97-3c, D3        
  Giovanni Bistoni       : ETS/NOCV, ADLD/ADEX, COVALED                  
  Martin Brehm           : Molecular dynamics                            
  Ronald Cardenas        : ETS/NOCV                                      
  Martina Colucci        : COVALED                                       
  Sebastian Ehlert       : rSCAN, r2SCAN, r2SCAN-3c, D4, dhf basis sets  
  Marvin Friede          : D4 for Fr, Ra, Ac-Lr                          
  Lars Goerigk           : TD-DFT with DH, B97 family of functionals     
  Stefan Grimme          : VdW corrections, initial TS optimization, DFT functionals, gCP, sTDA/sTD-DF 
  Waldemar Hujo          : DFT-NL                                        
  H. Jonsson             : NEB                                           
  Holger Kruse           : gCP                                           
  Marcel Mueller         : wB97X-3c, vDZP basis set                      
  Hagen Neugebauer       : wr2SCAN, Native XTB                           
  Gianluca Regni         : ADLD/ADEX                                     
  Tobias Risthaus        : pre 6.0 range-separated hybrid DFT and stability analysis
  Lukas Wittmann         : regularized MP2, r2SCAN double-hybrids, wr2SCAN        
                                                                         
We gratefully acknowledge several colleagues who have allowed us to      
interface, adapt or use parts of their codes:                            
  Ed Valeev, F. Pavosevic, A. Kumar             : LibInt (2-el integral package), F12 methods 
  Garnet Chan, S. Sharma, J. Yang, R. Olivares  : DMRG                   
  Ulf Ekstrom                                   : XCFun DFT Library      
  Mihaly Kallay                                 : mrcc  (arbitrary order and MRCC methods)
  Frank Weinhold                                : gennbo (NPA and NBO analysis)           
  Simon Mueller                                 : openCOSMO-RS                            
  Christopher J. Cramer and Donald G. Truhlar   : smd solvation model                     
  S Lehtola, MJT Oliveira, MAL Marques          : LibXC Library                           
  Liviu Ungur et al                             : ANISO software                          


 Your calculation uses the libint2 library for the computation of 2-el integrals
 For citations please refer to: http://libint.valeyev.net

 Your ORCA version has been built with support for libXC version: 7.0.0
 For citations please refer to: https://libxc.gitlab.io

 This ORCA versions uses:
   CBLAS   interface :  Fast vector & matrix operations
   LAPACKE interface :  Fast linear algebra routines
   SCALAPACK package :  Parallel linear algebra routines
   Shared memory     :  Shared parallel matrices
   BLAS/LAPACK       :  OpenBLAS 0.3.29  USE64BITINT DYNAMIC_ARCH NO_AFFINITY Zen SINGLE_THREADED
        Core in use  :  Zen
   Copyright (c) 2011-2014, The OpenBLAS Project


  ***********************************
  * Starting time: Fri Apr 24 00:24:05 2026
  * Host name:     vmi3233575
  * Process ID:    1562699
  * Working dir.:  /root/b12_scan/jobs/random0_nn2.00
  ***********************************

NOTE: MaxCore=2500 MB was set to SCF,MP2,MDCI,CIPSI,MRCI,RASCI and CIS
      => If you want to overwrite this, your respective input block should be placed after the MaxCore statement
Your calculation utilizes the atom-pairwise dispersion correction
with the Becke-Johnson damping scheme (D3BJ)


================================================================================

----- Orbital basis set information -----
Your calculation utilizes the basis: def2-SVP
   F. Weigend and R. Ahlrichs, Phys. Chem. Chem. Phys. 7, 3297 (2005).

----- AuxJ basis set information -----
Your calculation utilizes the auxiliary basis: def2/J
   H-Rn: F. Weigend, Phys. Chem. Chem. Phys. 8, 1057 (2006).
   Fr-Lr: K. Eichkorn, F. Weigend, O. Treutler, R. Ahlrichs; Theor. Chem. Acc. 97, 119 (1997).

================================================================================
                                        WARNINGS
                       Please study these warnings very carefully!
================================================================================


WARNING: Geometry Optimization
  ===> : Switching off AutoStart
         For restart on a previous wavefunction, please use MOREAD

================================================================================
                                       INPUT FILE
================================================================================
NAME = random0_nn2.00.inp
|  1> ! BP86 def2-SVP def2/J RI Opt TightSCF D3BJ
|  2> ! SlowConv
|  3> 
|  4> %pal nprocs 8 end
|  5> %maxcore 2500
|  6> 
|  7> %geom
|  8>   MaxIter 300
|  9> end
| 10> 
| 11> * xyz 0 1
| 12> B      0.71265120      1.79470735      0.09222465
| 13> B     -2.38821772      2.75654161      0.07665649
| 14> B      1.30127470     -0.65570445     -2.84710625
| 15> B     -1.07773754      0.65814893     -1.50328976
| 16> B      0.62389646     -1.02271889     -1.00144671
| 17> B      2.75340884     -1.81958271      0.66466820
| 18> B     -1.23371006     -2.37271490     -0.57895821
| 19> B      0.52340034     -1.30486845      1.01583607
| 20> B     -0.48356673      3.41424081     -0.22240340
| 21> B      0.22554509     -0.26839165      2.87948250
| 22> B      2.26726179     -0.46530799      2.15126041
| 23> B     -3.22420636     -0.71434966     -0.72692399
| 24> *
| 25> 
| 26>                          ****END OF INPUT****
================================================================================

                       *****************************
                       * Geometry Optimization Run *
                       *****************************

Geometry optimization settings:
Update method            Update   .... BFGS
Choice of coordinates    CoordSys .... (2022) Redundant Internals
Initial Hessian          InHess   .... Almloef's Model
Max. no of cycles        MaxIter  .... 300

Convergence Tolerances:
Energy Change            TolE     ....  5.0000e-06 Eh
Max. Gradient            TolMAXG  ....  3.0000e-04 Eh/bohr
RMS Gradient             TolRMSG  ....  1.0000e-04 Eh/bohr
Max. Displacement        TolMAXD  ....  4.0000e-03 bohr
RMS Displacement         TolRMSD  ....  2.0000e-03 bohr
Strict Convergence                .... False

------------------------------------------------------------------------------
                        ORCA OPTIMIZATION COORDINATE SETUP
------------------------------------------------------------------------------

The optimization will be done in redundant internal coordinates (2022)
Making redundant internal coordinates   ...  (2022 redundants) done
Evaluating the initial hessian          ...  (Almloef) done
Evaluating the coordinates              ...  done
Calculating the B-matrix                .... done
Calculating the G-matrix                .... done
The number of degrees of freedom        ....  181

    -----------------------------------------------------------------
                    Redundant Internal Coordinates


    -----------------------------------------------------------------
         Definition                    Initial Value    Approx d2E/dq
    -----------------------------------------------------------------
      1. B(B   3,B   1)                  2.9354         0.010000   
      2. B(B   3,B   0)                  2.6539         0.010000   
      3. B(B   3,B   2)                  3.0318         0.010000   
      4. B(B   4,B   2)                  2.0000         0.089157   
      5. B(B   4,B   0)                  3.0236         0.010000   
      6. B(B   4,B   3)                  2.4439         0.017455   
      7. B(B   5,B   4)                  2.8188         0.010000   
      8. B(B   6,B   4)                  2.3349         0.026054   
      9. B(B   7,B   5)                  2.3154         0.027985   
     10. B(B   7,B   6)                  2.6021         0.010000   
     11. B(B   7,B   4)                  2.0394         0.077144   
     12. B(B   8,B   0)                  2.0378         0.077585   
     13. B(B   8,B   1)                  2.0371         0.077803   
     14. B(B   8,B   3)                  3.0967         0.010000   
     15. B(B   9,B   7)                  2.1532         0.050789   
     16. B(B  10,B   7)                  2.2439         0.036394   
     17. B(B  10,B   9)                  2.1766         0.046598   
     18. B(B  10,B   5)                  2.0689         0.069220   
     19. B(B  11,B   3)                  2.6634         0.010000   
     20. B(B  11,B   6)                  2.5950         0.010019   
     21. A(B   3,B   0,B   8)           81.4612         0.173206   
     22. A(B   4,B   0,B   8)          131.8721         0.150921   
     23. A(B   3,B   0,B   4)           50.4805         0.126102   
     24. A(B   3,B   1,B   8)           74.5956         0.155670   
     25. A(B   3,B   2,B   4)           53.4676         0.152465   
     26. A(B   2,B   3,B  11)          122.5660         0.125557   
     27. A(B   2,B   3,B   4)           41.1146         0.132876   
     28. A(B   4,B   3,B   8)          113.1782         0.130570   
     29. A(B   8,B   3,B  11)          119.5176         0.123635   
     30. A(B   0,B   3,B   1)           70.8190         0.128922   
     31. A(B   2,B   3,B   8)          114.7378         0.114497   
     32. A(B   4,B   3,B  11)           98.4447         0.148601   
     33. A(B   0,B   3,B  11)          126.0960         0.139054   
     34. A(B   1,B   3,B   2)          153.9828         0.118157   
     35. A(B   1,B   3,B  11)           81.4714         0.128606   
     36. A(B   0,B   3,B   4)           72.6244         0.149077   
     37. A(B   0,B   3,B   2)           85.5662         0.125849   
     38. A(B   0,B   3,B   8)           40.5996         0.123912   
     39. A(B   1,B   3,B   8)           39.3595         0.116624   
     40. A(B   1,B   3,B   4)          133.7864         0.136536   
     41. A(B   0,B   4,B   2)           98.7930         0.152901   
     42. A(B   2,B   4,B   7)          162.7271         0.233841   
     43. A(B   5,B   4,B   6)          109.3074         0.146347   
     44. A(B   6,B   4,B   7)           72.6517         0.198639   
     45. A(B   3,B   4,B   7)          105.3052         0.189136   
     46. A(B   0,B   4,B   6)          119.7800         0.137370   
     47. A(B   3,B   4,B   6)           83.1582         0.167323   
     48. A(B   2,B   4,B   6)          122.8568         0.202290   
     49. A(B   0,B   4,B   5)           91.5727         0.121346   
     50. A(B   2,B   4,B   3)           85.4178         0.192471   
     51. A(B   0,B   4,B   3)           56.8952         0.133178   
     52. A(B   5,B   4,B   7)           54.0880         0.162318   
     53. A(B   2,B   4,B   5)          109.9661         0.164759   
     54. A(B   0,B   4,B   7)           76.8541         0.150841   
     55. A(B   3,B   4,B   5)          147.3318         0.141376   
     56. A(B   4,B   5,B   7)           45.5095         0.147282   
     57. A(B   4,B   5,B  10)           93.5628         0.160541   
     58. A(B   7,B   5,B  10)           61.2623         0.197727   
     59. A(B   7,B   6,B  11)          106.8967         0.144312   
     60. A(B   4,B   6,B  11)          103.3230         0.158075   
     61. A(B   4,B   6,B   7)           48.4250         0.157668   
     62. A(B   9,B   7,B  10)           59.2987         0.196580   
     63. A(B   4,B   7,B  10)          114.2336         0.207254   
     64. A(B   5,B   7,B   6)          117.7860         0.158788   
     65. A(B   4,B   7,B   9)          142.7845         0.216520   
     66. A(B   6,B   7,B  10)          171.2801         0.163064   
     67. A(B   6,B   7,B   9)          129.3902         0.168868   
     68. A(B   4,B   7,B   6)           58.9234         0.176793   
     69. A(B   5,B   7,B  10)           53.9444         0.183003   
     70. A(B   5,B   7,B   9)          111.8087         0.190369   
     71. A(B   4,B   7,B   5)           80.4026         0.200427   
     72. A(B   1,B   8,B   3)           66.0448         0.147303   
     73. A(B   0,B   8,B   3)           57.9392         0.147266   
     74. A(B   0,B   8,B   1)          105.6396         0.229625   
     75. A(B   7,B   9,B  10)           62.4266         0.202769   
     76. A(B   7,B  10,B   9)           58.2747         0.194503   
     77. A(B   5,B  10,B   7)           64.7933         0.204389   
     78. A(B   5,B  10,B   9)          121.3345         0.211028   
     79. A(B   3,B  11,B   6)           74.2030         0.141564   
     80. D(B   1,B   3,B   0,B   8)    -31.5622         0.010000   
     81. D(B   2,B   3,B   0,B   8)    137.3438         0.010000   
     82. D(B  11,B   3,B   2,B   4)    -62.1749         0.010000   
     83. D(B   0,B   3,B   2,B   4)     68.4893         0.010000   
     84. D(B   4,B   3,B   0,B   8)    177.2116         0.010000   
     85. D(B  11,B   3,B   0,B   8)    -94.9497         0.010000   
     86. D(B   0,B   3,B   1,B   8)     32.4873         0.010000   
     87. D(B   8,B   3,B   2,B   4)     97.5355         0.010000   
     88. D(B   1,B   3,B   0,B   4)    151.2262         0.010000   
     89. D(B   4,B   3,B   1,B   8)     72.0065         0.010000   
     90. D(B   2,B   3,B   0,B   4)    -39.8678         0.010000   
     91. D(B   2,B   3,B   1,B   8)      6.5517         0.010000   
     92. D(B   8,B   3,B   0,B   4)   -177.2116         0.010000   
     93. D(B   1,B   3,B   2,B   4)     92.9658         0.010000   
     94. D(B  11,B   3,B   1,B   8)    165.5586         0.010000   
     95. D(B   2,B   4,B   3,B   0)   -103.6110         0.010000   
     96. D(B   2,B   4,B   3,B   8)   -101.6374         0.010000   
     97. D(B   2,B   4,B   3,B   1)   -142.6426         0.010000   
     98. D(B   6,B   4,B   2,B   3)     78.8118         0.010000   
     99. D(B   5,B   4,B   2,B   3)   -150.3889         0.010000   
    100. D(B   2,B   4,B   3,B  11)    131.1058         0.010000   
    101. D(B   5,B   4,B   0,B   3)   -170.9012         0.010000   
    102. D(B   7,B   4,B   2,B   3)   -129.3524         0.010000   
    103. D(B   0,B   4,B   2,B   3)    -55.4700         0.010000   
    104. D(B   7,B   4,B   0,B   8)   -122.1202         0.010000   
    105. D(B   7,B   4,B   3,B   0)     62.6180         0.010000   
    106. D(B   0,B   4,B   3,B   1)    -39.0316         0.010000   
    107. D(B   7,B   4,B   3,B   2)    166.2290         0.010000   
    108. D(B   7,B   4,B   3,B   8)     64.5916         0.010000   
    109. D(B   2,B   4,B   0,B   8)     74.9132         0.010000   
    110. D(B   7,B   4,B   3,B   1)     23.5864         0.010000   
    111. D(B   7,B   4,B   0,B   3)   -118.4160         0.010000   
    112. D(B   7,B   4,B   3,B  11)    -62.6652         0.010000   
    113. D(B   2,B   4,B   0,B   3)     78.6174         0.010000   
    114. D(B   5,B   4,B   0,B   8)   -174.6055         0.010000   
    115. D(B   3,B   4,B   0,B   8)     -3.7042         0.010000   
    116. D(B   7,B   5,B   4,B   2)    172.4380         0.010000   
    117. D(B  10,B   5,B   4,B   6)    -92.4924         0.010000   
    118. D(B  10,B   5,B   4,B   0)     29.9252         0.010000   
    119. D(B  10,B   5,B   4,B   3)     15.7189         0.010000   
    120. D(B  10,B   5,B   4,B   7)    -42.5694         0.010000   
    121. D(B   7,B   5,B   4,B   3)     58.2883         0.010000   
    122. D(B  10,B   5,B   4,B   2)    129.8686         0.010000   
    123. D(B  11,B   6,B   4,B   3)     -7.5157         0.010000   
    124. D(B  11,B   6,B   4,B   7)    100.9059         0.010000   
    125. D(B  11,B   6,B   4,B   2)    -87.5373         0.010000   
    126. D(B   7,B   6,B   4,B   0)    -63.0453         0.010000   
    127. D(B   7,B   6,B   4,B   3)   -108.4215         0.010000   
    128. D(B   7,B   6,B   4,B   5)     40.4865         0.010000   
    129. D(B   7,B   6,B   4,B   2)    171.5569         0.010000   
    130. D(B   9,B   7,B   5,B   4)   -143.3475         0.010000   
    131. D(B   9,B   7,B   5,B  10)    -13.7031         0.010000   
    132. D(B   4,B   7,B   5,B  10)    129.6445         0.010000   
    133. D(B  10,B   7,B   4,B   0)    -58.7142         0.010000   
    134. D(B  10,B   7,B   4,B   3)   -108.5178         0.010000   
    135. D(B  10,B   7,B   4,B   2)     18.4350         0.010000   
    136. D(B   9,B   7,B   4,B   6)   -115.5635         0.010000   
    137. D(B  10,B   7,B   4,B   5)     43.0531         0.010000   
    138. D(B   9,B   7,B   4,B   5)    113.5986         0.010000   
    139. D(B   9,B   7,B   4,B   0)     11.8313         0.010000   
    140. D(B   9,B   7,B   4,B   3)    -37.9723         0.010000   
    141. D(B  10,B   7,B   5,B   4)   -129.6445         0.010000   
    142. D(B   9,B   7,B   4,B   2)     88.9805         0.010000   
    143. D(B  10,B   7,B   6,B  11)   -132.8074         0.010000   
    144. D(B  10,B   7,B   6,B   4)    -39.7989         0.010000   
    145. D(B   9,B   7,B   6,B  11)     42.0831         0.010000   
    146. D(B   9,B   7,B   6,B   4)    135.0916         0.010000   
    147. D(B   4,B   7,B   6,B  11)    -93.0085         0.010000   
    148. D(B   6,B   7,B   5,B   4)     47.0906         0.010000   
    149. D(B   5,B   7,B   6,B   4)    -57.4793         0.010000   
    150. D(B   6,B   7,B   5,B  10)    176.7351         0.010000   
    151. D(B   1,B   8,B   3,B   2)   -176.8411         0.010000   
    152. D(B   1,B   8,B   3,B   4)   -131.6773         0.010000   
    153. D(B   1,B   8,B   3,B   0)   -128.7824         0.010000   
    154. D(B   0,B   8,B   3,B  11)    112.3181         0.010000   
    155. D(B   0,B   8,B   3,B   2)    -48.0587         0.010000   
    156. D(B   0,B   8,B   3,B   4)     -2.8949         0.010000   
    157. D(B   0,B   8,B   3,B   1)    128.7824         0.010000   
    158. D(B   0,B   8,B   1,B   3)    -43.3175         0.010000   
    159. D(B   3,B   8,B   0,B   4)      2.8887         0.010000   
    160. D(B   1,B   8,B   0,B   4)     50.6009         0.010000   
    161. D(B   1,B   8,B   0,B   3)     47.7121         0.010000   
    162. D(B  10,B   9,B   7,B   6)   -179.1003         0.010000   
    163. D(B  10,B   9,B   7,B   5)     12.8695         0.010000   
    164. D(B  10,B   9,B   7,B   4)    -90.4256         0.010000   
    165. D(B   9,B  10,B   7,B   6)    175.4086         0.010000   
    166. D(B   9,B  10,B   7,B   5)   -165.1798         0.010000   
    167. D(B   9,B  10,B   7,B   4)    138.4524         0.010000   
    168. D(B   5,B  10,B   7,B   6)    -19.4116         0.010000   
    169. D(B   5,B  10,B   7,B   9)    165.1798         0.010000   
    170. D(B   5,B  10,B   7,B   4)    -56.3679         0.010000   
    171. D(B   7,B  10,B   5,B   4)     33.3923         0.010000   
    172. D(B   9,B  10,B   5,B   4)     48.1492         0.010000   
    173. D(B   5,B  10,B   9,B   7)    -15.7208         0.010000   
    174. D(B   9,B  10,B   5,B   7)     14.7569         0.010000   
    175. D(B   3,B  11,B   6,B   7)     57.2632         0.010000   
    176. D(B   3,B  11,B   6,B   4)      7.1138         0.010000   
    177. D(B   6,B  11,B   3,B   2)     29.3250         0.010000   
    178. D(B   6,B  11,B   3,B   4)     -6.6840         0.010000   
    179. D(B   6,B  11,B   3,B   8)   -129.4570         0.010000   
    180. D(B   6,B  11,B   3,B   1)   -139.9286         0.010000   
    181. D(B   6,B  11,B   3,B   0)    -81.2940         0.010000   
    -----------------------------------------------------------------

Number of atoms                         .... 12
Number of degrees of freedom            .... 181


         *************************************************************
         *                GEOMETRY OPTIMIZATION CYCLE   1            *
         *************************************************************
---------------------------------
CARTESIAN COORDINATES (ANGSTROEM)
---------------------------------
  B      0.712651    1.794707    0.092225
  B     -2.388218    2.756542    0.076656
  B      1.301275   -0.655704   -2.847106
  B     -1.077738    0.658149   -1.503290
  B      0.623896   -1.022719   -1.001447
  B      2.753409   -1.819583    0.664668
  B     -1.233710   -2.372715   -0.578958
  B      0.523400   -1.304868    1.015836
  B     -0.483567    3.414241   -0.222403
  B      0.225545   -0.268392    2.879482
  B      2.267262   -0.465308    2.151260
  B     -3.224206   -0.714350   -0.726924

----------------------------
CARTESIAN COORDINATES (A.U.)
----------------------------
  NO LB      ZA    FRAG     MASS         X           Y           Z
   0 B     5.0000    0    10.810    1.346716    3.391505    0.174279
   1 B     5.0000    0    10.810   -4.513077    5.209109    0.144860
   2 B     5.0000    0    10.810    2.459053   -1.239102   -5.380251
   3 B     5.0000    0    10.810   -2.036629    1.243721   -2.840806
   4 B     5.0000    0    10.810    1.178993   -1.932659   -1.892460
   5 B     5.0000    0    10.810    5.203189   -3.438513    1.256041
   6 B     5.0000    0    10.810   -2.331374   -4.483781   -1.094072
   7 B     5.0000    0    10.810    0.989083   -2.465844    1.919652
   8 B     5.0000    0    10.810   -0.913809    6.451980   -0.420282
   9 B     5.0000    0    10.810    0.426218   -0.507187    5.441433
  10 B     5.0000    0    10.810    4.284504   -0.879305    4.065293
  11 B     5.0000    0    10.810   -6.092867   -1.349925   -1.373687

--------------------------------
INTERNAL COORDINATES (ANGSTROEM)
--------------------------------
 B      0   0   0     0.000000000000     0.00000000     0.00000000
 B      1   0   0     3.246652979660     0.00000000     0.00000000
 B      1   2   0     3.871777596147   109.21166095     0.00000000
 B      1   2   3     2.653850620308    58.64415226   350.84635704
 B      3   1   2     2.000000004197    50.51072418   274.36226035
 B      5   3   1     2.818821352538   109.96613752   265.08114872
 B      5   3   1     2.334884952796   122.85676273   134.28183278
 B      5   3   1     2.039396395708   162.72706780   286.11760967
 B      2   1   3     2.037081355566    37.18835356   248.10079115
 B      8   5   3     2.153179027146   142.78452935    88.98045063
 B      6   5   3     2.068901972131    93.56277970   129.86861628
 B      7   5   3     2.595023056084   103.32301805   272.46274129

---------------------------
INTERNAL COORDINATES (A.U.)
---------------------------
 B      0   0   0     0.000000000000     0.00000000     0.00000000
 B      1   0   0     6.135284983437     0.00000000     0.00000000
 B      1   2   0     7.316599308170   109.21166095     0.00000000
 B      1   2   3     5.015050872719    58.64415226   350.84635704
 B      3   1   2     3.779452275773    50.51072418   274.36226035
 B      5   3   1     5.326800376746   109.96613752   265.08114872
 B      5   3   1     4.412293114999   122.85676273   134.28183278
 B      5   3   1     3.853900666395   162.72706780   286.11760967
 B      2   1   3     3.849525874537    37.18835356   248.10079115
 B      8   5   3     4.068918678609   142.78452935    88.98045063
 B      6   5   3     3.909658125257    93.56277970   129.86861628
 B      7   5   3     4.903882887209   103.32301805   272.46274129

---------------------
BASIS SET INFORMATION
---------------------
There are 1 groups of distinct atoms

 Group   1 Type B   : 7s4p1d contracted to 3s2p1d pattern {511/31/1}

Atom   0B    basis set group =>   1
Atom   1B    basis set group =>   1
Atom   2B    basis set group =>   1
Atom   3B    basis set group =>   1
Atom   4B    basis set group =>   1
Atom   5B    basis set group =>   1
Atom   6B    basis set group =>   1
Atom   7B    basis set group =>   1
Atom   8B    basis set group =>   1
Atom   9B    basis set group =>   1
Atom  10B    basis set group =>   1
Atom  11B    basis set group =>   1
---------------------------------
AUXILIARY/J BASIS SET INFORMATION
---------------------------------
There are 1 groups of distinct atoms

 Group   1 Type B   : 12s5p4d2f1g contracted to 6s4p3d1f1g pattern {711111/2111/211/2/1}

Atom   0B    basis set group =>   1
Atom   1B    basis set group =>   1
Atom   2B    basis set group =>   1
Atom   3B    basis set group =>   1
Atom   4B    basis set group =>   1
Atom   5B    basis set group =>   1
Atom   6B    basis set group =>   1
Atom   7B    basis set group =>   1
Atom   8B    basis set group =>   1
Atom   9B    basis set group =>   1
Atom  10B    basis set group =>   1
Atom  11B    basis set group =>   1


           ************************************************************
           *        Program running with 8 parallel MPI-processes     *
           *              working on a common directory               *
           ************************************************************
------------------------------------------------------------------------------
                             ORCA STARTUP CALCULATIONS
                           -- RI-GTO INTEGRALS CHOSEN --
------------------------------------------------------------------------------
------------------------------------------------------------------------------
                   ___                                                        
                  /   \      - P O W E R E D   B Y -                         
                 /     \                                                     
                 |  |  |   _    _      __       _____    __    __             
                 |  |  |  | |  | |    /  \     |  _  \  |  |  /  |          
                  \  \/   | |  | |   /    \    | | | |  |  | /  /          
                 / \  \   | |__| |  /  /\  \   | |_| |  |  |/  /          
                |  |  |   |  __  | /  /__\  \  |    /   |      \           
                |  |  |   | |  | | |   __   |  |    \   |  |\   \          
                \     /   | |  | | |  |  |  |  | |\  \  |  | \   \       
                 \___/    |_|  |_| |__|  |__|  |_| \__\ |__|  \__/        
                                                                              
                      - O R C A' S   B I G   F R I E N D -                    
                                      &                                       
                       - I N T E G R A L  F E E D E R -                       
                                                                              
 v1 FN, 2020, v2 2021, v3 2022-2024                                           
------------------------------------------------------------------------------


----------------------
SHARK INTEGRAL PACKAGE
----------------------

Number of atoms                             ...     12
Number of basis functions                   ...    168
Number of shells                            ...     72
Maximum angular momentum                    ...      2
Integral batch strategy                     ... SHARK/LIBINT Hybrid
RI-J (if used) integral strategy            ... SPLIT-RIJ (Revised 2003 algorithm where possible)
Printlevel                                  ...      1
Contraction scheme used                     ... SEGMENTED contraction
Prescreening option                         ... SCHWARTZ
   Thresh                                   ... 2.500e-11
   Tcut                                     ... 2.500e-12
   Tpresel                                  ... 2.500e-12 
Coulomb Range Separation                    ... NOT USED
Exchange Range Separation                   ... NOT USED
Multipole approximations                    ... NOT USED
Finite Nucleus Model                        ... NOT USED
CABS basis                                  ... NOT available
Auxiliary Coulomb fitting basis             ... AVAILABLE
   # of basis functions in Aux-J            ...    588
   # of shells in Aux-J                     ...    180
   Maximum angular momentum in Aux-J        ...      4
Auxiliary J/K fitting basis                 ... NOT available
Auxiliary Correlation fitting basis         ... NOT available
Auxiliary 'external' fitting basis          ... NOT available

Checking pre-screening integrals            ... done (  0.0 sec) Dimension = 72
   => SHARK Basis and OBASIS are compatible. Storing Pre-screening
Shell pair information
Shell pair cut-off parameter TPreSel        ...   2.5e-12
Total number of shell pairs                 ...      2628
Shell pairs after pre-screening             ...      2468
Total number of primitive shell pairs       ...     10596
Primitive shell pairs kept                  ...      6794
          la=0 lb=0:    594 shell pairs
          la=1 lb=0:    836 shell pairs
          la=1 lb=1:    300 shell pairs
          la=2 lb=0:    378 shell pairs
          la=2 lb=1:    286 shell pairs
          la=2 lb=2:     74 shell pairs

Checking whether 4 symmetric matrices of dimension 168 fit in memory
:Max Core in MB      =   2500.00
 MB in use           =      6.61
 MB left             =   2493.39
 MB needed           =      0.43
 Data fit in memory  = YES
Calculating RI/J V-Matrix + Cholesky decomp.... done (  0.0 sec)
Calculating Nuclear repulsion               ... done (  0.0 sec) ENN=    245.114064967984 Eh

Diagonalization of the overlap matrix:
Smallest eigenvalue                        ... 2.622e-03
Time for diagonalization                   ...    0.004 sec
Threshold for overlap eigenvalues          ... 1.000e-07
Number of eigenvalues below threshold      ... 0
Time for construction of square roots      ...    0.001 sec
Total time needed                          ...    0.008 sec

-------------------
DFT GRID GENERATION
-------------------

General Integration Accuracy     IntAcc      ... 4.388
Radial Grid Type                 RadialGrid  ... OptM3 with GC (2021)
Angular Grid (max. ang.)         AngularGrid ... 4 (Lebedev-302)
Angular grid pruning method      GridPruning ... 4 (adaptive)
Weight generation scheme         WeightScheme... mBecke (2022)
Basis function cutoff            BFCut       ... 1.0000e-11
Integration weight cutoff        WCut        ... 1.0000e-14
Partially contracted basis set               ... off
Rotationally invariant grid construction     ... off
Angular grids for H and He will be reduced by one unit

Total number of grid points                  ...    72589
Total number of batches                      ...     1141
Average number of points per batch           ...       63
Average number of grid points per atom       ...     6049
Grids setup in   0.9 sec
Initializing property integral containers    ... done (  0.0 sec)

SHARK setup successfully completed in   1.1 seconds

Maximum memory used throughout the entire STARTUP-calculation: 19.8 MB


           ************************************************************
           *        Program running with 8 parallel MPI-processes     *
           *              working on a common directory               *
           ************************************************************
-------------------------------------------------------------------------------
                                 ORCA GUESS
                   Start orbitals & Density for SCF / CASSCF
-------------------------------------------------------------------------------

------------
SCF SETTINGS
------------
Hamiltonian:
 Density Functional     Method          .... DFT(GTOs)
 Exchange Functional    Exchange        .... B88
   X-Alpha parameter    XAlpha          ....  0.666667
   Becke's b parameter  XBeta           ....  0.004200
 Correlation Functional Correlation     .... P86
 LDA part of GGA corr.  LDAOpt          .... PW91-LDA
 Gradients option       PostSCFGGA      .... off
   NL short-range parameter             ....  4.400000
 RI-approximation to the Coulomb term is turned on
   Number of AuxJ basis functions       .... 588


General Settings:
 Integral files         IntName         .... random0_nn2.00
 Hartree-Fock type      HFTyp           .... RHF
 Total Charge           Charge          ....    0
 Multiplicity           Mult            ....    1
 Number of Electrons    NEL             ....   60
 Basis Dimension        Dim             ....  168
 Nuclear Repulsion      ENuc            ....    245.1140649680 Eh

Convergence Acceleration:
 AO-DIIS                CNVDIIS         .... on
   Start iteration      DIISMaxIt       ....     0
   Startup error        DIISStart       ....  0.200000
   # of expansion vecs  DIISMaxEq       ....     5
   Bias factor          DIISBfac        ....   1.050
   Max. coefficient     DIISMaxC        ....  10.000
 MO-DIIS                CNVKDIIS        .... off
 Trust-Rad. Augm. Hess. CNVTRAH         .... auto
   Auto Start mean grad. ratio tolernc. ....  1.125000
   Auto Start start iteration           ....    50
   Auto Start num. interpolation iter.  ....    10
   Max. Number of Micro iterations      ....    24
   Max. Number of Macro iterations      .... Maxiter - #DIIS iter
   Number of Davidson start vectors     ....     2
   Converg. threshold    (grad. norm)   ....   1.000e-05
   Grad. Scal. Fac. for Micro threshold ....   0.100
   Minimum threshold for Micro iter.    ....   1.000e-02
   NR start threshold (gradient norm)   ....   1.000e-04
   Initial trust radius                 ....   0.400
   Minimum AH scaling param. (alpha)    ....   1.000
   Maximum AH scaling param. (alpha)    .... 1000.000
   Quad. conv. algorithm                .... NR
   White noise on init. David. guess    .... on
   Maximum white noise                  ....   0.010
   Pseudo random numbers                .... off
   Inactive MOs                         .... canonical
   Orbital update algorithm             .... Taylor
   Preconditioner                       .... Diag
   Full preconditioner red. dimension   ....   250
 SOSCF                 CNVSOSCF           .... on
   Start iteration     SOSCFMaxIt         ....   150
   Startup grad/error  SOSCFStart         ....  0.001000
   Hessian update      SOSCFHessUp        .... L-BFGS
   Autom. constraints  SOSCFAutoConstrain .... off
 Level Shifting         CNVShift        .... on
   Level shift para.    LevelShift      ....    0.2500
   Turn off err/grad.   ShiftErr        ....    0.0000
 Zerner damping         CNVZerner       .... off
 Static damping         CNVDamp         .... on
   Fraction old density DampFac         ....    0.8500
   Max. Damping (<1)    DampMax         ....    0.9800
   Min. Damping (>=0)   DampMin         ....    0.0000
   Turn off err/grad.   DampErr         ....    0.0300

SCF Procedure:
 Maximum # iterations   MaxIter         ....   125
 SCF integral mode      SCFMode         .... Direct
   Integral package                     .... SHARK and LIBINT hybrid scheme
 Reset frequency        DirectResetFreq ....    20
 Integral Threshold     Thresh          ....  2.500e-11 Eh
 Primitive CutOff       TCut            ....  2.500e-12 Eh

Convergence Tolerance:
 Convergence Check Mode ConvCheckMode   .... Total+1el-Energy
 Convergence forced     ConvForced      .... 0
 Energy Change          TolE            ....  1.000e-08 Eh
 1-El. energy change                    ....  1.000e-05 Eh
 Orbital Gradient       TolG            ....  1.000e-05
 Orbital Rotation angle TolX            ....  1.000e-05
 DIIS Error             TolErr          ....  5.000e-07

------------------------------
INITIAL GUESS: MODEL POTENTIAL
------------------------------
Loading Hartree-Fock densities                     ... done
Calculating cut-offs                               ... done
Initializing the effective Hamiltonian             ... done
Setting up the integral package (SHARK)            ... done
Starting the Coulomb interaction                   ... done (   0.1 sec)
Making the grid                                    ... done (   0.2 sec)
Mapping shells                                     ... done
Starting the XC term evaluation                    ... done (   0.0 sec)
  promolecular density results
     # of electrons  =     60.000207371
     EX              =    -44.599362558
     EC              =     -1.778817996
     EX+EC           =    -46.378180554
Transforming the Hamiltonian                       ... done (   0.0 sec)
Diagonalizing the Hamiltonian                      ... done (   0.0 sec)
Back transforming the eigenvectors                 ... done (   0.0 sec)
Now organizing SCF variables                       ... done
                      ------------------
                      INITIAL GUESS DONE (   0.3 sec)
                      ------------------
             **** ENERGY FILE WAS UPDATED (random0_nn2.00.en.tmp) ****
Finished Guess after   1.0 sec
Maximum memory used throughout the entire GUESS-calculation: 9.4 MB


           ************************************************************
           *        Program running with 8 parallel MPI-processes     *
           *              working on a common directory               *
           ************************************************************

-------------------------------------------------------------------------------------------
                                      ORCA LEAN-SCF
                              memory conserving SCF solver
-------------------------------------------------------------------------------------------

----------------------------------------D-I-I-S--------------------------------------------
Iteration    Energy (Eh)           Delta-E    RMSDP     MaxDP     DIISErr   Damp  Time(sec)
-------------------------------------------------------------------------------------------
               ***  Starting incremental Fock matrix formation  ***
    1    -296.2710221892666596     0.00e+00  6.51e-03  6.41e-02  7.63e-02  0.850   0.3
Warning: op=0 Small HOMO/LUMO gap (  -0.055) - skipping pre-diagonalization
         Will do a full diagonalization
    2    -296.3811407120905415    -1.10e-01  7.35e-03  7.68e-02  4.85e-02  0.850   0.3
                               ***Turning on AO-DIIS***
    3    -296.4001762171653809    -1.90e-02  4.52e-03  3.06e-02  2.32e-02  0.850   0.4
    4    -296.3686836268514071     3.15e-02  2.05e-02  1.19e-01  4.28e-02  0.000   0.3
    5    -296.0202670837273899     3.48e-01  9.59e-04  1.02e-02  1.72e-01  0.850   1.3
    6    -296.0613924898231062    -4.11e-02  1.47e-03  1.47e-02  1.60e-01  0.850   0.4
    7    -296.1195401080673264    -5.81e-02  1.83e-03  1.69e-02  1.42e-01  0.850   0.6
    8    -296.1833396588554024    -6.38e-02  2.56e-03  2.08e-02  1.20e-01  0.850   0.4
    9    -296.2538982279296533    -7.06e-02  4.54e-03  4.19e-02  8.90e-02  0.850   0.3
   10    -296.3434536071948742    -8.96e-02  3.63e-03  2.82e-02  6.33e-02  0.850   0.4
   11    -296.3965044861340630    -5.31e-02  2.69e-03  1.70e-02  4.35e-02  0.850   0.5
   12    -296.4260875573586418    -2.96e-02  2.05e-03  1.21e-02  2.74e-02  0.850   0.4
   13    -296.4424584132193559    -1.64e-02  1.06e-02  6.23e-02  1.47e-02  0.000   0.3
   14    -296.4383879968814881     4.07e-03  1.52e-03  1.36e-02  3.82e-02  0.000   0.3
   15    -296.4526224259864193    -1.42e-02  2.38e-04  2.29e-03  3.17e-02  0.850   0.4
   16    -296.4545974643847330    -1.98e-03  3.62e-04  2.88e-03  3.04e-02  0.850   0.3
   17    -296.4575683420003998    -2.97e-03  4.14e-04  3.06e-03  2.83e-02  0.850   0.3
   18    -296.4608380972439363    -3.27e-03  5.69e-03  4.36e-02  2.59e-02  0.000   0.4
   19    -296.4771063732414405    -1.63e-02  3.24e-03  4.15e-02  1.66e-02  0.000   0.4
   20    -296.4766353329988533     4.71e-04  9.20e-04  1.18e-02  1.79e-02  0.000   0.3
               *** Restarting incremental Fock matrix formation ***
                             ****Resetting DIIS****
Warning: op=0 Small HOMO/LUMO gap (   0.000) - skipping pre-diagonalization
         Will do a full diagonalization
   21    -296.4778351901172755    -1.20e-03  8.77e-03  6.06e-02  1.27e-02  0.000   0.5
   22    -296.4179917609953918     5.98e-02  3.53e-03  3.63e-02  8.59e-02  0.000   0.4
   23    -296.4586063815550006    -4.06e-02  2.68e-04  1.69e-03  4.36e-02  0.850   0.5
   24    -296.4610293936141261    -2.42e-03  3.89e-04  2.69e-03  4.06e-02  0.850   0.4
   25    -296.4642687183729777    -3.24e-03  4.38e-04  3.27e-03  3.65e-02  0.850   0.8
   26    -296.4675072955371888    -3.24e-03  8.58e-04  7.98e-03  3.22e-02  0.850   0.4
   27    -296.4720438737256245    -4.54e-03  7.21e-04  5.00e-03  2.65e-02  0.850   0.8
   28    -296.4752146046331518    -3.17e-03  3.73e-03  2.73e-02  1.82e-02  0.000   0.3
   29    -296.4763821363122815    -1.17e-03  1.13e-03  1.10e-02  1.92e-02  0.000   0.3
   30    -296.4778571105202900    -1.47e-03  7.12e-04  6.72e-03  1.06e-02  0.000   0.4
   31    -296.4788943074613599    -1.04e-03  5.04e-04  3.73e-03  7.71e-03  0.000   0.4
   32    -296.4793454617814632    -4.51e-04  4.33e-04  4.11e-03  7.20e-03  0.000   0.3
   33    -296.4795989386483370    -2.53e-04  4.20e-04  3.21e-03  3.24e-03  0.000   0.5
   34    -296.4797153101425238    -1.16e-04  3.57e-04  3.47e-03  1.35e-03  0.000   0.4
   35    -296.4797304868610581    -1.52e-05  2.43e-04  2.82e-03  1.57e-03  0.000   0.5
                              *** Initializing SOSCF ***
---------------------------------------S-O-S-C-F--------------------------------------
Iteration    Energy (Eh)           Delta-E    RMSDP     MaxDP     MaxGrad    Time(sec)
--------------------------------------------------------------------------------------
   36    -296.4797496531759862    -1.92e-05  1.21e-04  1.27e-03  7.44e-04     0.3
               *** Restarting incremental Fock matrix formation ***
   37    -296.4797617978269955    -1.21e-05  3.68e-04  3.11e-03  4.01e-04     0.3
   38    -296.4796832916617859     7.85e-05  2.84e-04  2.49e-03  1.70e-03     0.3
   39    -296.4797691803179305    -8.59e-05  1.19e-04  1.15e-03  1.26e-04     0.3
   40    -296.4797674557282789     1.72e-06  7.53e-05  5.06e-04  2.45e-04     0.3
   41    -296.4797708845929947    -3.43e-06  1.38e-04  1.20e-03  1.27e-04     0.3
   42    -296.4797686877305978     2.20e-06  8.76e-05  7.42e-04  2.29e-04     0.4
   43    -296.4797735292048628    -4.84e-06  9.30e-05  4.60e-04  1.01e-04     0.2
   44    -296.4797745873913755    -1.06e-06  2.18e-04  9.66e-04  9.57e-05     0.4
   45    -296.4797764622516070    -1.87e-06  2.04e-04  8.15e-04  7.57e-05     0.3
   46    -296.4797762242432100     2.38e-07  4.57e-05  4.39e-04  1.33e-04     0.5
   47    -296.4797772838560377    -1.06e-06  4.62e-05  1.98e-04  2.84e-05     0.4
   48    -296.4797772548871535     2.90e-08  1.71e-05  1.01e-04  3.83e-05     0.4
   49    -296.4797773815487290    -1.27e-07  2.85e-05  1.14e-04  1.37e-05     0.3
   50    -296.4797774035331486    -2.20e-08  1.33e-05  8.47e-05  1.17e-05     0.3
   51    -296.4797774328922060    -2.94e-08  1.78e-05  6.82e-05  1.18e-05     0.2
   52    -296.4797774531893992    -2.03e-08  1.56e-05  6.79e-05  6.73e-06     0.3
   53    -296.4797774628427760    -9.65e-09  1.02e-05  3.79e-05  6.35e-06     1.4
                 **** Energy Check signals convergence ****

               *****************************************************
               *                     SUCCESS                       *
               *           SCF CONVERGED AFTER  53 CYCLES          *
               *****************************************************

             **** ENERGY FILE WAS UPDATED (random0_nn2.00.en.tmp) ****

----------------
TOTAL SCF ENERGY
----------------

Total Energy       :       -296.47977746951540 Eh           -8067.62490 eV

Components:
Nuclear Repulsion  :        245.11406496798449 Eh            6669.89280 eV
Electronic Energy  :       -541.59384243749992 Eh          -14737.51769 eV
One Electron Energy:       -878.17784910542423 Eh          -23896.43415 eV
Two Electron Energy:        336.58400666792426 Eh            9158.91645 eV

Virial components:
Potential Energy   :       -587.76617134829871 Eh          -15993.93064 eV
Kinetic Energy     :        291.28639387878326 Eh            7926.30574 eV
Virial Ratio       :          2.01782913208398

DFT components:
N(Alpha)           :       29.999986157869 electrons
N(Beta)            :       29.999986157869 electrons
N(Total)           :       59.999972315737 electrons
E(X)               :      -44.792255970722 Eh       
E(C)               :       -1.811196128202 Eh       
E(XC)              :      -46.603452098924 Eh       

---------------
SCF CONVERGENCE
---------------

  Last Energy change         ...    9.6534e-09  Tolerance :   1.0000e-08
  Last MAX-Density change    ...    3.7891e-05  Tolerance :   1.0000e-07
  Last RMS-Density change    ...    1.0237e-05  Tolerance :   5.0000e-09
  Last DIIS Error            ...    7.4368e-04  Tolerance :   5.0000e-07
  Last Orbital Gradient      ...    6.3492e-06  Tolerance :   1.0000e-05
  Last Orbital Rotation      ...    2.9673e-04  Tolerance :   1.0000e-05


----------------
ORBITAL ENERGIES
----------------

  NO   OCC          E(Eh)            E(eV) 
   0   2.0000      -6.692073      -182.1006 
   1   2.0000      -6.672270      -181.5617 
   2   2.0000      -6.662091      -181.2847 
   3   2.0000      -6.660256      -181.2348 
   4   2.0000      -6.655285      -181.0995 
   5   2.0000      -6.654021      -181.0651 
   6   2.0000      -6.653736      -181.0574 
   7   2.0000      -6.651086      -180.9852 
   8   2.0000      -6.637771      -180.6229 
   9   2.0000      -6.636643      -180.5922 
  10   2.0000      -6.636457      -180.5872 
  11   2.0000      -6.631937      -180.4642 
  12   2.0000      -0.514354       -13.9963 
  13   2.0000      -0.472435       -12.8556 
  14   2.0000      -0.458257       -12.4698 
  15   2.0000      -0.413974       -11.2648 
  16   2.0000      -0.395255       -10.7554 
  17   2.0000      -0.386507       -10.5174 
  18   2.0000      -0.372218       -10.1286 
  19   2.0000      -0.345411        -9.3991 
  20   2.0000      -0.324065        -8.8183 
  21   2.0000      -0.286015        -7.7829 
  22   2.0000      -0.272056        -7.4030 
  23   2.0000      -0.267305        -7.2737 
  24   2.0000      -0.241469        -6.5707 
  25   2.0000      -0.229746        -6.2517 
  26   2.0000      -0.225698        -6.1415 
  27   2.0000      -0.220021        -5.9871 
  28   2.0000      -0.205369        -5.5884 
  29   2.0000      -0.200775        -5.4634 
  30   0.0000      -0.197667        -5.3788 
  31   0.0000      -0.196482        -5.3465 
  32   0.0000      -0.183936        -5.0051 
  33   0.0000      -0.181140        -4.9291 
  34   0.0000      -0.167723        -4.5640 
  35   0.0000      -0.163002        -4.4355 
  36   0.0000      -0.144312        -3.9269 
  37   0.0000      -0.143683        -3.9098 
  38   0.0000      -0.130569        -3.5530 
  39   0.0000      -0.126755        -3.4492 
  40   0.0000      -0.122760        -3.3405 
*Only the first 10 virtual orbitals were printed.

                    ********************************
                    * MULLIKEN POPULATION ANALYSIS *
                    ********************************

-----------------------
MULLIKEN ATOMIC CHARGES
-----------------------
   0 B :    0.003121
   1 B :    0.044159
   2 B :    0.141320
   3 B :   -0.133642
   4 B :   -0.220253
   5 B :    0.079466
   6 B :    0.062487
   7 B :   -0.199765
   8 B :   -0.018463
   9 B :    0.091107
  10 B :   -0.011271
  11 B :    0.161734
Sum of atomic charges:   -0.0000000

--------------------------------
MULLIKEN REDUCED ORBITAL CHARGES
--------------------------------
  0 B s       :     3.647623  s :     3.647623
      pz      :     0.363667  p :     1.339376
      px      :     0.521244
      py      :     0.454464
      dz2     :     0.001229  d :     0.009880
      dxz     :     0.001685
      dyz     :     0.001324
      dx2y2   :     0.002675
      dxy     :     0.002968

  1 B s       :     3.784064  s :     3.784064
      pz      :     0.236453  p :     1.162401
      px      :     0.563422
      py      :     0.362526
      dz2     :     0.001216  d :     0.009376
      dxz     :     0.001648
      dyz     :     0.000460
      dx2y2   :     0.002745
      dxy     :     0.003308

  2 B s       :     3.863502  s :     3.863502
      pz      :     0.565924  p :     0.984715
      px      :     0.187315
      py      :     0.231476
      dz2     :     0.004212  d :     0.010462
      dxz     :     0.002986
      dyz     :     0.002197
      dx2y2   :     0.000435
      dxy     :     0.000634

  3 B s       :     3.717790  s :     3.717790
      pz      :     0.325521  p :     1.407688
      px      :     0.562625
      py      :     0.519542
      dz2     :     0.000937  d :     0.008164
      dxz     :     0.001716
      dyz     :     0.001515
      dx2y2   :     0.001340
      dxy     :     0.002657

  4 B s       :     3.359202  s :     3.359202
      pz      :     0.708107  p :     1.840833
      px      :     0.610992
      py      :     0.521734
      dz2     :     0.005720  d :     0.020218
      dxz     :     0.005373
      dyz     :     0.003382
      dx2y2   :     0.001963
      dxy     :     0.003781

  5 B s       :     3.694606  s :     3.694606
      pz      :     0.401478  p :     1.212412
      px      :     0.379418
      py      :     0.431516
      dz2     :     0.001560  d :     0.013515
      dxz     :     0.002808
      dyz     :     0.003232
      dx2y2   :     0.004002
      dxy     :     0.001914

  6 B s       :     3.817543  s :     3.817543
      pz      :     0.287589  p :     1.110157
      px      :     0.459722
      py      :     0.362846
      dz2     :     0.001244  d :     0.009814
      dxz     :     0.001508
      dyz     :     0.001253
      dx2y2   :     0.001429
      dxy     :     0.004379

  7 B s       :     3.360728  s :     3.360728
      pz      :     0.670284  p :     1.817183
      px      :     0.631425
      py      :     0.515474
      dz2     :     0.005445  d :     0.021854
      dxz     :     0.006656
      dyz     :     0.003746
      dx2y2   :     0.002921
      dxy     :     0.003086

  8 B s       :     3.573461  s :     3.573461
      pz      :     0.361465  p :     1.430938
      px      :     0.503093
      py      :     0.566380
      dz2     :     0.001408  d :     0.014064
      dxz     :     0.000890
      dyz     :     0.002091
      dx2y2   :     0.004585
      dxy     :     0.005089

  9 B s       :     3.690722  s :     3.690722
      pz      :     0.407763  p :     1.205257
      px      :     0.527011
      py      :     0.270484
      dz2     :     0.003404  d :     0.012914
      dxz     :     0.002658
      dyz     :     0.002812
      dx2y2   :     0.002966
      dxy     :     0.001074

 10 B s       :     3.582796  s :     3.582796
      pz      :     0.513094  p :     1.411679
      px      :     0.523366
      py      :     0.375218
      dz2     :     0.002136  d :     0.016796
      dxz     :     0.004566
      dyz     :     0.002828
      dx2y2   :     0.003572
      dxy     :     0.003695

 11 B s       :     3.879611  s :     3.879611
      pz      :     0.150746  p :     0.953527
      px      :     0.392492
      py      :     0.410288
      dz2     :     0.000672  d :     0.005128
      dxz     :     0.000764
      dyz     :     0.000178
      dx2y2   :     0.000837
      dxy     :     0.002677



                     *******************************
                     * LOEWDIN POPULATION ANALYSIS *
                     *******************************

----------------------
LOEWDIN ATOMIC CHARGES
----------------------
   0 B :    0.041488
   1 B :    0.043949
   2 B :    0.112288
   3 B :   -0.022905
   4 B :   -0.220765
   5 B :    0.062570
   6 B :    0.080344
   7 B :   -0.143830
   8 B :   -0.087702
   9 B :    0.052993
  10 B :   -0.048044
  11 B :    0.129614

-------------------------------
LOEWDIN REDUCED ORBITAL CHARGES
-------------------------------
  0 B s       :     3.408553  s :     3.408553
      pz      :     0.391354  p :     1.529903
      px      :     0.587482
      py      :     0.551068
      dz2     :     0.002832  d :     0.020056
      dxz     :     0.002888
      dyz     :     0.002245
      dx2y2   :     0.003776
      dxy     :     0.008315

  1 B s       :     3.570962  s :     3.570962
      pz      :     0.257767  p :     1.365840
      px      :     0.701118
      py      :     0.406954
      dz2     :     0.002968  d :     0.019249
      dxz     :     0.002649
      dyz     :     0.000735
      dx2y2   :     0.006552
      dxy     :     0.006346

  2 B s       :     3.620421  s :     3.620421
      pz      :     0.757470  p :     1.243160
      px      :     0.231953
      py      :     0.253737
      dz2     :     0.011348  d :     0.024131
      dxz     :     0.007258
      dyz     :     0.003811
      dx2y2   :     0.000663
      dxy     :     0.001052

  3 B s       :     3.461165  s :     3.461165
      pz      :     0.349182  p :     1.548644
      px      :     0.644828
      py      :     0.554634
      dz2     :     0.001671  d :     0.013096
      dxz     :     0.002729
      dyz     :     0.001844
      dx2y2   :     0.001718
      dxy     :     0.005135

  4 B s       :     3.047014  s :     3.047014
      pz      :     0.883561  p :     2.125559
      px      :     0.664334
      py      :     0.577663
      dz2     :     0.018932  d :     0.048192
      dxz     :     0.011100
      dyz     :     0.006105
      dx2y2   :     0.003018
      dxy     :     0.009037

  5 B s       :     3.435868  s :     3.435868
      pz      :     0.486853  p :     1.472841
      px      :     0.477500
      py      :     0.508487
      dz2     :     0.003330  d :     0.028721
      dxz     :     0.004699
      dyz     :     0.008914
      dx2y2   :     0.008244
      dxy     :     0.003534

  6 B s       :     3.584684  s :     3.584684
      pz      :     0.322556  p :     1.317963
      px      :     0.564894
      py      :     0.430513
      dz2     :     0.002286  d :     0.017008
      dxz     :     0.002657
      dyz     :     0.001841
      dx2y2   :     0.001850
      dxy     :     0.008375

  7 B s       :     3.028339  s :     3.028339
      pz      :     0.821905  p :     2.066551
      px      :     0.703027
      py      :     0.541620
      dz2     :     0.015494  d :     0.048940
      dxz     :     0.012468
      dyz     :     0.008798
      dx2y2   :     0.005873
      dxy     :     0.006307

  8 B s       :     3.307117  s :     3.307117
      pz      :     0.382898  p :     1.746348
      px      :     0.680043
      py      :     0.683408
      dz2     :     0.004328  d :     0.034237
      dxz     :     0.001934
      dyz     :     0.003315
      dx2y2   :     0.009993
      dxy     :     0.014667

  9 B s       :     3.443785  s :     3.443785
      pz      :     0.523677  p :     1.473227
      px      :     0.636912
      py      :     0.312638
      dz2     :     0.008198  d :     0.029995
      dxz     :     0.005663
      dyz     :     0.007030
      dx2y2   :     0.007412
      dxy     :     0.001692

 10 B s       :     3.265678  s :     3.265678
      pz      :     0.621596  p :     1.744652
      px      :     0.667676
      py      :     0.455380
      dz2     :     0.003687  d :     0.037714
      dxz     :     0.010485
      dyz     :     0.008016
      dx2y2   :     0.008900
      dxy     :     0.006626

 11 B s       :     3.763759  s :     3.763759
      pz      :     0.157840  p :     1.098261
      px      :     0.476985
      py      :     0.463436
      dz2     :     0.001223  d :     0.008366
      dxz     :     0.001049
      dyz     :     0.000267
      dx2y2   :     0.001057
      dxy     :     0.004769



                      *****************************
                      * MAYER POPULATION ANALYSIS *
                      *****************************

  NA   - Mulliken gross atomic population
  ZA   - Total nuclear charge
  QA   - Mulliken gross atomic charge
  VA   - Mayer's total valence
  BVA  - Mayer's bonded valence
  FA   - Mayer's free valence

  ATOM       NA         ZA         QA         VA         BVA        FA
  0 B      4.9969     5.0000     0.0031     2.5563     2.5563     0.0000
  1 B      4.9558     5.0000     0.0442     2.1036     2.1036     0.0000
  2 B      4.8587     5.0000     0.1413     1.5592     1.5592     0.0000
  3 B      5.1336     5.0000    -0.1336     2.5391     2.5391    -0.0000
  4 B      5.2203     5.0000    -0.2203     3.1468     3.1468    -0.0000
  5 B      4.9205     5.0000     0.0795     2.3014     2.3014     0.0000
  6 B      4.9375     5.0000     0.0625     2.0465     2.0465     0.0000
  7 B      5.1998     5.0000    -0.1998     3.1904     3.1904    -0.0000
  8 B      5.0185     5.0000    -0.0185     2.6602     2.6602    -0.0000
  9 B      4.9089     5.0000     0.0911     2.2602     2.2602     0.0000
 10 B      5.0113     5.0000    -0.0113     2.6621     2.6621    -0.0000
 11 B      4.8383     5.0000     0.1617     1.6862     1.6862    -0.0000

  Mayer bond orders larger than 0.100000
B(  0-B ,  1-B ) :   0.3809 B(  0-B ,  3-B ) :   0.3900 B(  0-B ,  4-B ) :   0.2047 
B(  0-B ,  6-B ) :   0.1215 B(  0-B ,  7-B ) :   0.1326 B(  0-B ,  8-B ) :   0.9054 
B(  0-B , 10-B ) :   0.1046 B(  0-B , 11-B ) :   0.1361 B(  1-B ,  3-B ) :   0.3194 
B(  1-B ,  6-B ) :   0.1189 B(  1-B ,  8-B ) :   0.8695 B(  1-B , 11-B ) :   0.1567 
B(  2-B ,  3-B ) :   0.1780 B(  2-B ,  4-B ) :   0.7584 B(  2-B ,  6-B ) :   0.1184 
B(  3-B ,  4-B ) :   0.4496 B(  3-B ,  6-B ) :   0.1919 B(  3-B ,  8-B ) :   0.3641 
B(  3-B , 11-B ) :   0.4573 B(  4-B ,  5-B ) :   0.1950 B(  4-B ,  6-B ) :   0.4718 
B(  4-B ,  7-B ) :   0.6911 B(  5-B ,  7-B ) :   0.5123 B(  5-B ,  9-B ) :   0.4207 
B(  5-B , 10-B ) :   0.8633 B(  6-B ,  7-B ) :   0.3004 B(  6-B ,  8-B ) :   0.1253 
B(  6-B , 11-B ) :   0.4380 B(  7-B ,  9-B ) :   0.7666 B(  7-B , 10-B ) :   0.5292 
B(  8-B , 11-B ) :   0.1118 B(  9-B , 10-B ) :   0.7452 

-------
TIMINGS
-------

Total SCF time: 0 days 0 hours 0 min 23 sec 

Total time                  ....      23.008 sec
Sum of individual times     ....      22.174 sec  ( 96.4%)

SCF preparation             ....       0.481 sec  (  2.1%)
Fock matrix formation       ....      16.940 sec  ( 73.6%)
  Startup                   ....       0.057 sec  (  0.3% of F)
  Split-RI-J                ....       5.424 sec  ( 32.0% of F)
  XC integration            ....      10.715 sec  ( 63.3% of F)
    XC Preparation          ....       0.000 sec  (  0.0% of XC)
    Basis function eval.    ....       2.061 sec  ( 19.2% of XC)
    Density eval.           ....       1.216 sec  ( 11.4% of XC)
    XC-Functional eval.     ....       0.316 sec  (  2.9% of XC)
    XC-Potential eval.      ....       1.354 sec  ( 12.6% of XC)
Diagonalization             ....       0.000 sec  (  0.0%)
Density matrix formation    ....       0.726 sec  (  3.2%)
Total Energy calculation    ....       0.236 sec  (  1.0%)
Population analysis         ....       0.053 sec  (  0.2%)
Orbital Transformation      ....       0.093 sec  (  0.4%)
Orbital Orthonormalization  ....       0.000 sec  (  0.0%)
DIIS solution               ....       2.391 sec  ( 10.4%)
SOSCF solution              ....       1.254 sec  (  5.4%)
Finished LeanSCF after  23.0 sec

Maximum memory used throughout the entire LEANSCF-calculation: 9.7 MB


-------------------------------------------------------------------------------
                          DFT DISPERSION CORRECTION                            
                                                                               
                              DFTD3 V3.1  Rev 1                                
                          USING Becke-Johnson damping                          
-------------------------------------------------------------------------------
The BP86 functional is recognized
Active option DFTDOPT                   ...         4   

molecular C6(AA) [au] = 12248.393068 


            DFT-D V3
 parameters
 s6 scaling factor         :     1.0000 
 a1 scaling factor         :     0.3946 
 s8 scaling factor         :     3.2822 
 a2 scaling factor         :     4.8516 
 ad hoc parameters k1-k3   :    16.0000     1.3333    -4.0000 

 Edisp/kcal,au: -37.886119690903  -0.060375368366 
 E6   /kcal   : -11.180887856 
 E8   /kcal   : -26.705231835 
 % E8         :  70.488168365 

-------------------------   ----------------
Dispersion correction           -0.060375368
-------------------------   ----------------


-------------------------   --------------------
FINAL SINGLE POINT ENERGY      -296.540152837881
-------------------------   --------------------



           ************************************************************
           *        Program running with 8 parallel MPI-processes     *
           *              working on a common directory               *
           ************************************************************
------------------------------------------------------------------------------
                         ORCA SCF GRADIENT CALCULATION
------------------------------------------------------------------------------

Nuc. rep. gradient        (SHARK) ... done (  0.0 sec)
HCore & Overlap gradient  (SHARK) ... done (  0.1 sec)
Split-RIJ-J gradient      (SHARK) ... done (  0.4 sec)
XC gradient                       ... done (  1.0 sec)
Dispersion correction             ... done (  0.1 sec)

-------------------
DISPERSION GRADIENT
-------------------

   1   B   :   -0.002569197    0.005542230   -0.001050296
   2   B   :    0.002174279    0.002285074   -0.000292810
   3   B   :   -0.001293649   -0.001242117    0.003714559
   4   B   :    0.000107716    0.000032166   -0.000759124
   5   B   :    0.000305919   -0.000744315   -0.000429913
   6   B   :   -0.000999520    0.001470891    0.002658363
   7   B   :    0.000286834   -0.000368245   -0.000416481
   8   B   :    0.003016900    0.001776385   -0.001391360
   9   B   :   -0.000160179   -0.003562930    0.001221158
  10   B   :    0.002533873   -0.002034229   -0.001869954
  11   B   :   -0.001685897   -0.002417001   -0.001012096
  12   B   :   -0.001717079   -0.000737910   -0.000372045

Difference to translation invariance:
           :   -0.0000000000   -0.0000000000    0.0000000000

Difference to rotation invariance:
           :    0.0000000000    0.0000000000    0.0000000000

Norm of the Dispersion gradient    ...    0.0115460384
RMS gradient                       ...    0.0019243397
MAX gradient                       ...    0.0055422303

------------------
CARTESIAN GRADIENT
------------------

   1   B   :    0.046941844   -0.009910910    0.021198264
   2   B   :   -0.049947286    0.001573396    0.015745522
   3   B   :    0.019652106    0.003195038   -0.041353088
   4   B   :   -0.012494575    0.008364413   -0.037448390
   5   B   :    0.022664651   -0.006544903   -0.016588714
   6   B   :    0.049958565   -0.048695453   -0.037886383
   7   B   :   -0.015661743   -0.045648399   -0.001824242
   8   B   :   -0.011139477   -0.024928017    0.017678562
   9   B   :    0.014742474    0.068253769   -0.010042767
  10   B   :   -0.057416245    0.028194819    0.064171458
  11   B   :    0.036929602    0.029996430    0.021727018
  12   B   :   -0.044229917   -0.003850182    0.004622760

Difference to translation invariance:
           :    0.0000000000    0.0000000000    0.0000000000

Difference to rotation invariance:
           :   -0.0000166839    0.0000125665   -0.0000335554

Norm of the Cartesian gradient     ...    0.1940882976
RMS gradient                       ...    0.0323480496
MAX gradient                       ...    0.0682537686

-------
TIMINGS
-------

Total SCF gradient time     ....        1.484 sec

Densities                   ....       0.001 sec  (  0.1%)
One electron gradient       ....       0.071 sec  (  4.8%)
RI-J Coulomb gradient       ....       0.362 sec  ( 24.4%)
XC gradient                 ....       0.955 sec  ( 64.3%)

Maximum memory used throughout the entire SCFGRAD-calculation: 29.4 MB
------------------------------------------------------------------------------
                         ORCA GEOMETRY RELAXATION STEP
------------------------------------------------------------------------------

Reading the OPT-File                    .... done
Getting information on internals        .... done
Copying old internal coords+grads       .... done
Making the new internal coordinates     .... (2022 redundants) done
Validating the new internal coordinates .... (2022 redundants) done
Calculating the B-matrix                .... done
Calculating the G,G- and P matrices     .... done
Transforming gradient to internals      .... done
Projecting the internal gradient        .... done
Number of atoms                         ....  12
Number of internal coordinates          .... 181
Current Energy                          ....  -296.540152838 Eh
Current gradient norm                   ....     0.194088298 Eh/bohr
Maximum allowed component of the step   ....  0.300
Current trust radius                    ....  0.300
Evaluating the initial hessian          ....  (Almloef) done
Projecting the Hessian                  .... done
Forming the augmented Hessian           .... done
Diagonalizing the augmented Hessian     .... done
Last element of RFO vector              ....  0.755706752
Lowest eigenvalues of augmented Hessian:
 -0.126563657  0.010639664  0.013095865  0.014056900  0.014525088
Length of the computed step             ....  0.866619424
Warning: the length of the step is outside the trust region - taking restricted step instead
The input lambda is                     ....     0.009630
   iter:   5  x=   -0.013016  g= 2590.926327 f(x)=    24.789098
   iter:  10  x=   -0.235625  g=    5.662499 f(x)=     0.459174
   iter:  15  x=   -0.444648  g=    0.366787 f(x)=     0.000020
The output lambda is                    ....    -0.444648 (17 iterations)
The final length of the internal step   ....  0.300000000
Converting the step to Cartesian space:
 Initial RMS(Int)=    0.0222988244
Transforming coordinates:
 Iter   0:  RMS(Cart)=    0.0517921337 RMS(Int)=    0.0222665009
done
Storing new coordinates                 .... done

                                .--------------------.
          ----------------------|Geometry convergence|-------------------------
          Item                value                   Tolerance       Converged
          ---------------------------------------------------------------------
          RMS gradient        0.0110013689            0.0001000000      NO
          MAX gradient        0.0515730751            0.0003000000      NO
          RMS step            0.0222988244            0.0020000000      NO
          MAX step            0.1026925007            0.0040000000      NO
          -------------------------------------------------------------------------
          ........................................................
          Max(Bonds)      0.0543      Max(Angles)    1.04
          Max(Dihed)        0.77      Max(Improp)    0.00
          ---------------------------------------------------------------------

The optimization has not yet converged - more geometry cycles are needed


    ---------------------------------------------------------------------------
                         Redundant Internal Coordinates
                            (Angstroem and degrees)

        Definition                    Value    dE/dq     Step     New-Value
    ----------------------------------------------------------------------------
     1. B(B   3,B   1)                2.9354  0.022729 -0.0261    2.9094   
     2. B(B   3,B   0)                2.6539  0.022207 -0.0251    2.6287   
     3. B(B   3,B   2)                3.0318  0.019976 -0.0229    3.0089   
     4. B(B   4,B   2)                2.0000  0.028334 -0.0293    1.9707   
     5. B(B   4,B   0)                3.0236  0.018066 -0.0219    3.0016   
     6. B(B   4,B   3)                2.4439  0.028526 -0.0317    2.4122   
     7. B(B   5,B   4)                2.8188  0.017948 -0.0214    2.7974   
     8. B(B   6,B   4)                2.3349  0.028272 -0.0319    2.3029   
     9. B(B   7,B   5)                2.3154  0.026990 -0.0296    2.2859   
    10. B(B   7,B   6)                2.6021  0.024182 -0.0277    2.5744   
    11. B(B   7,B   4)                2.0394  0.040572 -0.0415    1.9978   
    12. B(B   8,B   0)                2.0378  0.041164 -0.0426    1.9952   
    13. B(B   8,B   1)                2.0371  0.035903 -0.0372    1.9999   
    14. B(B   8,B   3)                3.0967  0.023686 -0.0269    3.0698   
    15. B(B   9,B   7)                2.1532  0.051573 -0.0543    2.0988   
    16. B(B  10,B   7)                2.2439  0.016448 -0.0196    2.2243   
    17. B(B  10,B   9)                2.1766  0.044778 -0.0477    2.1289   
    18. B(B  10,B   5)                2.0689  0.045353 -0.0466    2.0223   
    19. B(B  11,B   3)                2.6634  0.034568 -0.0400    2.6235   
    20. B(B  11,B   6)                2.5950  0.026176 -0.0301    2.5649   
    21. A(B   3,B   0,B   8)           81.46 -0.004604    0.49     81.95   
    22. A(B   4,B   0,B   8)          131.87 -0.002058    0.21    132.08   
    23. A(B   3,B   0,B   4)           50.48  0.002513   -0.28     50.20   
    24. A(B   3,B   1,B   8)           74.60 -0.002406    0.26     74.85   
    25. A(B   3,B   2,B   4)           53.47  0.002976   -0.35     53.12   
    26. A(B   2,B   3,B  11)          122.57 -0.001487    0.16    122.73   
    27. A(B   2,B   3,B   4)           41.11  0.003077   -0.31     40.80   
    28. A(B   4,B   3,B   8)          113.18  0.002107   -0.22    112.96   
    29. A(B   8,B   3,B  11)          119.52  0.003074   -0.35    119.17   
    30. A(B   0,B   3,B   1)           70.82  0.007210   -0.76     70.06   
    31. A(B   2,B   3,B   8)          114.74 -0.000658    0.09    114.82   
    32. A(B   4,B   3,B  11)           98.44 -0.003945    0.41     98.85   
    33. A(B   0,B   3,B  11)          126.10  0.001158   -0.16    125.94   
    34. A(B   1,B   3,B   2)          153.98  0.003261   -0.32    153.66   
    35. A(B   1,B   3,B  11)           81.47 -0.000686    0.04     81.51   
    36. A(B   0,B   3,B   4)           72.62 -0.003010    0.32     72.94   
[...]
      pz      :     0.534349  p :     1.430714
      px      :     0.416707
      py      :     0.479659
      dz2     :     0.005440  d :     0.039226
      dxz     :     0.008545
      dyz     :     0.006546
      dx2y2   :     0.009905
      dxy     :     0.008789

  7 B s       :     2.933014  s :     2.933014
      pz      :     0.557752  p :     1.607842
      px      :     0.515382
      py      :     0.534708
      dz2     :     0.013722  d :     0.060019
      dxz     :     0.011323
      dyz     :     0.010598
      dx2y2   :     0.010470
      dxy     :     0.013907

  8 B s       :     3.245621  s :     3.245621
      pz      :     0.509267  p :     1.832933
      px      :     0.804987
      py      :     0.518679
      dz2     :     0.003723  d :     0.041727
      dxz     :     0.004580
      dyz     :     0.007733
      dx2y2   :     0.012036
      dxy     :     0.013655

  9 B s       :     3.236404  s :     3.236404
      pz      :     0.547268  p :     1.432311
      px      :     0.462771
      py      :     0.422272
      dz2     :     0.004772  d :     0.039348
      dxz     :     0.006569
      dyz     :     0.007818
      dx2y2   :     0.010340
      dxy     :     0.009849

 10 B s       :     3.318609  s :     3.318609
      pz      :     0.531755  p :     1.867024
      px      :     0.550098
      py      :     0.785171
      dz2     :     0.009448  d :     0.039604
      dxz     :     0.009216
      dyz     :     0.009778
      dx2y2   :     0.004756
      dxy     :     0.006405

 11 B s       :     3.318473  s :     3.318473
      pz      :     0.561350  p :     1.867153
      px      :     0.613583
      py      :     0.692220
      dz2     :     0.004266  d :     0.039523
      dxz     :     0.007584
      dyz     :     0.004902
      dx2y2   :     0.011179
      dxy     :     0.011591



                     *******************************
                     * LOEWDIN POPULATION ANALYSIS *
                     *******************************

----------------------
LOEWDIN ATOMIC CHARGES
----------------------
   0 B :   -0.050110
   1 B :    0.026233
   2 B :    0.025956
   3 B :    0.090296
   4 B :   -0.050518
   5 B :    0.026241
   6 B :   -0.041380
   7 B :    0.090366
   8 B :    0.025992
   9 B :   -0.042351
  10 B :   -0.050068
  11 B :   -0.050655

-------------------------------
LOEWDIN REDUCED ORBITAL CHARGES
-------------------------------
  0 B s       :     2.781497  s :     2.781497
      pz      :     0.545631  p :     2.168011
      px      :     0.871751
      py      :     0.750628
      dz2     :     0.010952  d :     0.100602
      dxz     :     0.014714
      dyz     :     0.014671
      dx2y2   :     0.028303
      dxy     :     0.031961

  1 B s       :     2.798928  s :     2.798928
      pz      :     0.537602  p :     2.071248
      px      :     0.633539
      py      :     0.900106
      dz2     :     0.010872  d :     0.103591
      dxz     :     0.015689
      dyz     :     0.012303
      dx2y2   :     0.030781
      dxy     :     0.033946

  2 B s       :     2.798789  s :     2.798789
      pz      :     0.778505  p :     2.071663
      px      :     0.730236
      py      :     0.562922
      dz2     :     0.022895  d :     0.103592
      dxz     :     0.023081
      dyz     :     0.020523
      dx2y2   :     0.016650
      dxy     :     0.020443

  3 B s       :     2.600158  s :     2.600158
      pz      :     0.630317  p :     2.148575
      px      :     0.769534
      py      :     0.748724
      dz2     :     0.024591  d :     0.160972
      dxz     :     0.026040
      dyz     :     0.023439
      dx2y2   :     0.044490
      dxy     :     0.042412

  4 B s       :     2.781580  s :     2.781580
      pz      :     0.603243  p :     2.168485
      px      :     0.933562
      py      :     0.631680
      dz2     :     0.021958  d :     0.100453
      dxz     :     0.026635
      dyz     :     0.019873
      dx2y2   :     0.013125
      dxy     :     0.018862

  5 B s       :     2.798862  s :     2.798862
      pz      :     0.850919  p :     2.071310
      px      :     0.584009
      py      :     0.636382
      dz2     :     0.021531  d :     0.103587
      dxz     :     0.021859
      dyz     :     0.020678
      dx2y2   :     0.017482
      dxy     :     0.022037

  6 B s       :     2.748513  s :     2.748513
      pz      :     0.654851  p :     2.183170
      px      :     0.871465
      py      :     0.656854
      dz2     :     0.012639  d :     0.109697
      dxz     :     0.024910
      dyz     :     0.019553
      dx2y2   :     0.029901
      dxy     :     0.022693

  7 B s       :     2.600202  s :     2.600202
      pz      :     0.757352  p :     2.148491
      px      :     0.707768
      py      :     0.683372
      dz2     :     0.030583  d :     0.160941
      dxz     :     0.035612
      dyz     :     0.032698
      dx2y2   :     0.025228
      dxy     :     0.036820

  8 B s       :     2.798772  s :     2.798772
      pz      :     0.519109  p :     2.071631
      px      :     0.958502
      py      :     0.594019
      dz2     :     0.010554  d :     0.103606
      dxz     :     0.011872
      dyz     :     0.016044
      dx2y2   :     0.031073
      dxy     :     0.034063

  9 B s       :     2.747574  s :     2.747574
      pz      :     0.602019  p :     2.184664
      px      :     0.681243
      py      :     0.901403
      dz2     :     0.010950  d :     0.110113
      dxz     :     0.017676
      dyz     :     0.023292
      dx2y2   :     0.031374
      dxy     :     0.026820

 10 B s       :     2.781630  s :     2.781630
      pz      :     0.621152  p :     2.167842
      px      :     0.649017
      py      :     0.897673
      dz2     :     0.020627  d :     0.100596
      dxz     :     0.023278
      dyz     :     0.023768
      dx2y2   :     0.013293
      dxy     :     0.019631

 11 B s       :     2.781611  s :     2.781611
      pz      :     0.606064  p :     2.168584
      px      :     0.743583
      py      :     0.818936
      dz2     :     0.010568  d :     0.100460
      dxz     :     0.017808
      dyz     :     0.015225
      dx2y2   :     0.027334
      dxy     :     0.029526



                      *****************************
                      * MAYER POPULATION ANALYSIS *
                      *****************************

  NA   - Mulliken gross atomic population
  ZA   - Total nuclear charge
  QA   - Mulliken gross atomic charge
  VA   - Mayer's total valence
  BVA  - Mayer's bonded valence
  FA   - Mayer's free valence

  ATOM       NA         ZA         QA         VA         BVA        FA
  0 B      5.2256     5.0000    -0.2256     3.0856     3.0856    -0.0000
  1 B      5.1210     5.0000    -0.1210     3.4128     3.4128     0.0000
  2 B      5.1198     5.0000    -0.1198     3.4121     3.4121     0.0000
  3 B      4.6005     5.0000     0.3995     2.8306     2.8306     0.0000
  4 B      5.2250     5.0000    -0.2250     3.0854     3.0854     0.0000
  5 B      5.1214     5.0000    -0.1214     3.4129     3.4129     0.0000
  6 B      4.7070     5.0000     0.2930     3.0687     3.0687    -0.0000
  7 B      4.6009     5.0000     0.3991     2.8310     2.8310    -0.0000
  8 B      5.1203     5.0000    -0.1203     3.4117     3.4117     0.0000
  9 B      4.7081     5.0000     0.2919     3.0731     3.0731     0.0000
 10 B      5.2252     5.0000    -0.2252     3.0849     3.0849     0.0000
 11 B      5.2251     5.0000    -0.2251     3.0857     3.0857    -0.0000

  Mayer bond orders larger than 0.100000
B(  0-B ,  3-B ) :   0.4553 B(  0-B ,  8-B ) :   1.3580 B(  0-B ,  9-B ) :   1.0487 
B(  1-B ,  3-B ) :   0.4329 B(  1-B ,  6-B ) :   0.1045 B(  1-B ,  8-B ) :   1.3156 
B(  1-B , 11-B ) :   1.3583 B(  2-B ,  4-B ) :   1.3583 B(  2-B ,  5-B ) :   1.3160 
B(  2-B ,  6-B ) :   0.1036 B(  2-B ,  7-B ) :   0.4331 B(  3-B ,  6-B ) :   0.3084 
B(  3-B ,  7-B ) :   0.3942 B(  3-B ,  8-B ) :   0.4329 B(  3-B ,  9-B ) :   0.3081 
B(  3-B , 11-B ) :   0.4546 B(  4-B ,  6-B ) :   1.0474 B(  4-B ,  7-B ) :   0.4554 
B(  5-B ,  7-B ) :   0.4329 B(  5-B ,  9-B ) :   0.1046 B(  5-B , 10-B ) :   1.3575 
B(  6-B ,  7-B ) :   0.3071 B(  6-B , 11-B ) :   1.0489 B(  7-B ,  9-B ) :   0.3097 
B(  7-B , 10-B ) :   0.4546 B(  8-B ,  9-B ) :   0.1040 B(  9-B , 10-B ) :   1.0494 


-------
TIMINGS
-------

Total SCF time: 0 days 0 hours 0 min 4 sec 

Total time                  ....       4.097 sec
Sum of individual times     ....       3.711 sec  ( 90.6%)

SCF preparation             ....       0.697 sec  ( 17.0%)
Fock matrix formation       ....       2.402 sec  ( 58.6%)
  Startup                   ....       0.015 sec  (  0.6% of F)
  Split-RI-J                ....       0.885 sec  ( 36.9% of F)
  XC integration            ....       1.586 sec  ( 66.0% of F)
    XC Preparation          ....       0.000 sec  (  0.0% of XC)
    Basis function eval.    ....       0.438 sec  ( 27.6% of XC)
    Density eval.           ....       0.291 sec  ( 18.4% of XC)
    XC-Functional eval.     ....       0.051 sec  (  3.2% of XC)
    XC-Potential eval.      ....       0.303 sec  ( 19.1% of XC)
Diagonalization             ....       0.000 sec  (  0.0%)
Density matrix formation    ....       0.049 sec  (  1.2%)
Total Energy calculation    ....       0.037 sec  (  0.9%)
Population analysis         ....       0.286 sec  (  7.0%)
Orbital Transformation      ....       0.022 sec  (  0.5%)
Orbital Orthonormalization  ....       0.000 sec  (  0.0%)
DIIS solution               ....       0.021 sec  (  0.5%)
SOSCF solution              ....       0.198 sec  (  4.8%)
Finished LeanSCF after   4.4 sec

Maximum memory used throughout the entire LEANSCF-calculation: 16.4 MB


-------------------------------------------------------------------------------
                          DFT DISPERSION CORRECTION                            
                                                                               
                              DFTD3 V3.1  Rev 1                                
                          USING Becke-Johnson damping                          
-------------------------------------------------------------------------------
The BP86 functional is recognized
Active option DFTDOPT                   ...         4   

molecular C6(AA) [au] = 4485.692437 


            DFT-D V3
 parameters
 s6 scaling factor         :     1.0000 
 a1 scaling factor         :     0.3946 
 s8 scaling factor         :     3.2822 
 a2 scaling factor         :     4.8516 
 ad hoc parameters k1-k3   :    16.0000     1.3333    -4.0000 

 Edisp/kcal,au: -19.923069486551  -0.031749428789 
 E6   /kcal   :  -5.764052823 
 E8   /kcal   : -14.159016663 
 % E8         :  71.068449933 

-------------------------   ----------------
Dispersion correction           -0.031749429
-------------------------   ----------------


-------------------------   --------------------
FINAL SINGLE POINT ENERGY      -297.683094180463
-------------------------   --------------------

                                *** OPTIMIZATION RUN DONE ***



           ************************************************************
           *        Program running with 8 parallel MPI-processes     *
           *              working on a common directory               *
           ************************************************************

------------------------------------------------------------------------------
                              ORCA PROPERTY CALCULATIONS
------------------------------------------------------------------------------

GBWName                                 ... random0_nn2.00.gbw
Number of atoms                         ...     12
Number of basis functions               ...    168
Max core memory                         ...   2500 MB

Electric properties:
Dipole moment                           ... YES
Quadrupole moment                       ...  NO
Static polarizability (Dipole/Dipole)   ...  NO
Static polarizability (Dipole/Quad.)    ...  NO
Static polarizability (Quad./Quad.)     ...  NO
Static polarizability (Velocity)        ...  NO
Static hyperpolarizability              ...  NO

Atomic electric properties:
Dipole moment                           ...  NO
Quadrupole moment                       ...  NO
Static polarizability                   ...  NO

Choice of electric origin               ... Center of mass
Position of electric origin             ...     0.000000     0.000000     0.000000

General magnetic properties:
Magnetizability                         ...  NO

EPR properties:
g-Tensor (aka g-matrix)                 ...  NO
Zero-Field splitting spin-orbit         ...  NO
Zero-field splitting spin-spin          ...  NO
Hyperfine couplings                     ...  NO (   0 nuclei)
Quadrupole couplings                    ...  NO (   0 nuclei)
Contact density                         ...  NO (   0 nuclei)

NMR properties:
Chemical shifts                         ...  NO (   0 nuclei)
Spin-rotation constants                 ...  NO (   0 nuclei)
Spin-spin couplings                     ...  NO (   0 nuclei,    0 pairs)

Choice of magnetic origin               ... GIAO
Position of magnetic origin             ...     0.000000     0.000000     0.000000

Properties with geometric perturbations:
SCF Hessian                             ...  NO
IR spectrum                             ...  NO
VCD spectrum                            ...  NO
X-ray spectroscopy properties:
SCF XES/XAS/RIXS spectra                ...  NO

SCF SOC stabilization energy            ...  NO
Diagonal Born-Oppenheimer correction    ...  NO

-------------
DIPOLE MOMENT
-------------

Method             : SCF
Type of density    : Electron Density
Multiplicity       :   1
Irrep              :   0
Energy             :  -297.6513447516734914 Eh
Basis              : AO
                                X                 Y                 Z
Electronic contribution:      0.000801185       0.000155456      -0.001836794
Nuclear contribution   :      0.000000000       0.000000000       0.000000000
                        -----------------------------------------
Total Dipole Moment    :      0.000801185       0.000155456      -0.001836794
                        -----------------------------------------
Magnitude (a.u.)       :      0.002009944
Magnitude (Debye)      :      0.005108873



--------------------
Rotational spectrum 
--------------------
 
Rotational constants in cm-1:             0.074924             0.038340             0.026299 
Rotational constants in MHz :          2246.162018          1149.397919           788.416433 

Dipole components along the rotational axes: 
x,y,z [a.u.] :     0.000665    -0.000706    -0.001760 
x,y,z [Debye]:     0.001690    -0.001795    -0.004474 

 

Dipole moment calculation done in   0.1 sec 

Maximum memory used throughout the entire PROP-calculation: 11.9 MB

--------------------------------
SUGGESTED CITATIONS FOR THIS RUN
--------------------------------

Below you find a list of papers that are relevant to this ORCA run
We neither can nor want to force you to cite these papers, but we appreciate if you do
You receive ORCA, which is the product of decades of hard work by many enthusiastic individuals, for free
The only thing we kindly ask in return is that you cite our papers,
We deeply appreciate it, if you show your appreciation for ORCA by not just citing the generic ORCA reference.

Please note that relegating all ORCA citations to the supporting information does *not* help us.
SI sections are not indexed - citations you put there will not count into any citation statistics
But we need these citations in order to attract the funding resources that allow us to do what we are doing

Therefore, if you are a happy ORCA user, please consider citing a few of the papers listed below in the main body of your paper

In addition to the list printed below, the program has created the file random0_nn2.00.bibtex that contains the list in bibtex format
You can import this file easily into all common literature databanks and citation aid programs

It goes without saying that in many instances, there are alternative algorithms to achieve similar
results as the ones you have gotten from ORCA. It is, of course, also the case that in some instances
ORCA just re-implements algorithms worked out by others. We are fully aware of that and we are also
fully appreciative of our colleagues work. Hence this citation list should not be read as indicating
that the listed papers, which are focused on our own work, are the only ones worth citing. It simply
meant to make it easier for users to cite ORCA specific papers. It is not a substitute for doing your
own literature research and citing the relevant literature in a scientifically appropriate manner.

List of essential papers. We consider these as the minimum necessary citations

  1. Neese, F.
     Software update: the ORCA program system, version 6.0
     WIRES Comput. Molec. Sci. 2025 15(1), e70019
     doi.org/10.1002/wcms.70019

List of papers to cite with high priority. The work reported in these papers was absolutely
necessary for this run to complete.
Our perspective: the developers of density functionals and basis sets usually get cited in chemistry papers
Good! But without the algorithms to do something with them, the functionals or basis sets would not do anything.
Hence, in our opinion, the algorithm design and method developments papers are equally worthy of getting cited

  1. Neese, F.
     An improvement of the resolution of the identity approximation for the formation of the Coulomb matrix
     J. Comp. Chem. 2003 24(14), 1740-1747
     doi.org/10.1002/jcc.10318
  2. Grimme, S.; Antony, J.; Ehrlich, S.; Krieg, H.
     A consistent and accurate ab initio parametrization of density functional dispersion correction (DFT-D) for the 94 elements H-Pu
     J. Chem. Phys. 2010 132 , 154104
     doi.org/10.1063/1.3382344
  3. Grimme, S.; Ehrlich, S.; Goerigk, L.
     Effect of the damping function in dispersion corrected density functional theory
     J. Comput. Chem. 2011 32(7), 1456-1465
     doi.org/10.1002/jcc.21759
  4. Neese, F.
     The SHARK Integral Generation and Digestion System
     J. Comp. Chem. 2022 44(3), 381
     doi.org/10.1002/jcc.26942

List of suggested additional citations. These are papers that are important in the 'surrounding' of 
of this run, or papers that preceded the highly important papers. If you like your results we are grateful for a citation.

  1. Neese, F.
     The ORCA program system
     WIRES Comput. Molec. Sci. 2012 2(1), 73-78
     doi.org/10.1002/wcms.81
  2. Neese, F.
     Software update: the ORCA program system, version 4.0
     WIRES Comput. Molec. Sci. 2018 8(1), 1-6
     doi.org/10.1002/wcms.1327
  3. Neese, F.; Wennmohs, F.; Becker, U.; Riplinger, C.
     The ORCA quantum chemistry program package
     J. Chem. Phys. 2020 152(22), 224108
     doi.org/10.1063/5.0004608
  4. Neese, F.
     Software update: The ORCA program system—Version 5.0
     WIRES Comput. Molec. Sci. 2022 12(1), e1606
     doi.org/10.1002/wcms.1606

List of optional additional citations

  1. Neese, F.
     Approximate second-order SCF convergence for spin unrestricted wavefunctions
     Chem. Phys. Lett. 2000 325(1-3), 93-98
     doi.org/10.1016/s0009-2614(00)00662-x

Timings for individual modules:

Sum of individual times          ...     1466.817 sec (=  24.447 min)
Startup calculation              ...      180.313 sec (=   3.005 min)  12.3 %
SCF iterations                   ...     1034.185 sec (=  17.236 min)  70.5 %
Property calculations            ...        0.768 sec (=   0.013 min)   0.1 %
SCF Gradient evaluation          ...      249.835 sec (=   4.164 min)  17.0 %
Geometry relaxation              ...        1.716 sec (=   0.029 min)   0.1 %
                             ****ORCA TERMINATED NORMALLY****
TOTAL RUN TIME: 0 days 0 hours 25 minutes 54 seconds 306 msec
