
                                 *****************
                                 * O   R   C   A *
                                 *****************

                                            #,                                       
                                            ###                                      
                                            ####                                     
                                            #####                                    
                                            ######                                   
                                           ########,                                 
                                     ,,################,,,,,                         
                               ,,#################################,,                 
                          ,,##########################################,,             
                       ,#########################################, ''#####,          
                    ,#############################################,,   '####,        
                  ,##################################################,,,,####,       
                ,###########''''           ''''###############################       
              ,#####''   ,,,,##########,,,,          '''####'''          '####       
            ,##' ,,,,###########################,,,                        '##       
           ' ,,###''''                  '''############,,,                           
         ,,##''                                '''############,,,,        ,,,,,,###''
      ,#''                                            '''#######################'''  
     '                                                          ''''####''''         
             ,#######,   #######,   ,#######,      ##                                
            ,#'     '#,  ##    ##  ,#'     '#,    #''#        ,####,    ,#,          
            ##       ##  ##   ,#'  ##            #'  '#       #'       ,# #          
            ##       ##  #######   ##           ,######,      #####,      #          
            '#,     ,#'  ##    ##  '#,     ,#' ,#      #,     #,   #      #          
             '#######'   ##     ##  '#######'  #'      '#     '####' #    #          



                #########################################################
                #                        -***-                          #
                #          Department of theory and spectroscopy        #
                #                                                       #
                #                      Frank Neese                      #
                #                                                       #
                #     Directorship, Architecture, Infrastructure        #
                #                    SHARK, DRIVERS                     #
                #        Core code/Algorithms in most modules           #
                #                                                       #
                #        Max Planck Institute fuer Kohlenforschung      #
                #                Kaiser Wilhelm Platz 1                 #
                #                 D-45470 Muelheim/Ruhr                 #
                #                      Germany                          #
                #                                                       #
                #                  All rights reserved                  #
                #                        -***-                          #
                #########################################################


                         Program Version 6.1.1  -  RELEASE   -
                                (GIT: $487d211c$)
                          ($2025-11-21 10:33:24 +0100$)
                                                                         
                                  - NO-DMRG VERSION -                    
                                                                         


 With contributions from (in alphabetic order):
[Max-Planck-Institut fuer Kohlenforschung]                               
  Daniel Aravena         : Magnetic Suceptibility                        
  Michael Atanasov       : Ab Initio Ligand Field Theory (pilot matlab implementation)
  Alexander A. Auer      : GIAO ZORA, VPT2 properties, NMR spectrum      
  Ute Becker             : All parallelization in ORCA, NUMFREQ, NUMCALC 
  Giovanni Bistoni       : ED, misc. LED, open-shell LED, HFLD           
  Dmytro Bykov           : pre 5.0 version of the SCF Hessian            
  Marcos Casanova-Páez   : Triplet and SCS-CIS(D). UHF-(DLPNO)-IP/EA/STEOM-CCSD. UHF-CVS-IP/STEOM-CCSD   
  Vijay G. Chilkuri      : MRCI spin determinant printing, contributions to CSF-ICE 
  Pauline Colinet        : FMM embedding                                 
  Dipayan Datta          : RHF DLPNO-CCSD density                        
  Achintya Kumar Dutta   : EOM-CC, STEOM-CC                              
  Nicolas Foglia         : Exact transition moments, OPA infrastructure, MCD improvements    
  Dmitry Ganyushin       : Spin-Orbit,Spin-Spin,Magnetic field MRCI      
  Miquel Garcia-Rates    : C-PCM and meta-GGA Hessian, CCSD/C-PCM, Gaussian charge scheme 
  Tiago L. C. Gouveia    : GS-ROHF, GS-ROCIS                             
  Yang Guo               : DLPNO-NEVPT2, F12-NEVPT2, CIM, IAO-localization        
  Andreas Hansen         : Spin unrestricted coupled pair/coupled cluster methods 
  Ingolf Harden          : AUTO-CI MPn and infrastructure                
  Benjamin Helmich-Paris : MC-RPA, TRAH-(SCF,CASSCF), AVAS, COSX integrals, SCF dyn. polar., MC-PDFT, srDFT 
  Lee Huntington         : MR-EOM, pCC                                   
  Robert Izsak           : Overlap fitted RIJCOSX, COSX-SCS-MP3, EOM     
  Riya Kayal             : Wick's Theorem for AUTO-CI, AUTO-CI UHF-CCSDT 
  Emily Kempfer          : AUTO-CI RHF CISDT and CCSDT, approximate NEVPT4
  Christian Kollmar      : KDIIS, OOCD, Brueckner-CCSD(T), CCSD density, CASPT2, CASPT2-K, improved NEVPT2 
  Axel Koslowski         : Symmetry handling                             
  Simone Kossmann        : meta-GGA functionals, TD-DFT gradient, OOMP2, (MP2 Hessian; deprecated post 5.0) 
  Lucas Lang             : DCDCAS, Hyperfine gauge corrections, ICE-SOC+SSC
  Marvin Lechner         : AUTO-CI (C++ implementation), FIC-MRCC        
  Spencer Leger          : CASSCF response                               
  Dagmar Lenk            : GEPOL surface, SMD, ORCA-2-JSON               
  Dimitrios Liakos       : Extrapolation schemes; Compound Job, Property file
  Dimitrios Manganas     : Further ROCIS development; embedding schemes. LFT, Crystal Embedding 
  Dimitrios Pantazis     : SARC Basis sets                               
  Anastasios Papadopoulos: AUTO-CI, single reference methods and gradients 
  Taras Petrenko         : pre 6.0 DFT Hessian and TD-DFT gradient,  ECA, NRVS 
  Petra Pikulova         : Analytic Raman intensities                    
  Peter Pinski           : DLPNO-MP2, DLPNO-MP2 Gradient                 
  Shashank Vittal Rao    : ES-AILFT, MagRelax                            
  Christoph Reimann      : Effective Core Potentials                     
  Marius Retegan         : Local ZFS, SOC                                
  Christoph Riplinger    : Optimizer, TS searches, QM/MM, DLPNO-CCSD(T), (RO)-DLPNO pert. Triples 
  Michael Roemelt        : Original ROCIS implementation, recursive CI coupling coefficients
  Masaaki Saitow         : Open-shell DLPNO-CCSD energy and density      
  Barbara Sandhoefer     : DKH picture change effects                    
  Yorick L. A. Schmerwitz: GMF and freeze-and-release deltaSCF, NEB S-IDPP initial path                    
  Kantharuban Sivalingam : CASSCF convergence/infrastructure, NEVPT2, NEVPT3, NEVPT4(SD), FIC-MRCI and CEPA variants
  Bernardo de Souza      : ESD, SOC TD-DFT                               
  Georgi L. Stoychev     : AutoAux, RI-MP2 NMR, DLPNO-MP2 response, X2C  
  Van Anh Tran           : RI-MP2 g-tensors                              
  Willem Van den Heuvel  : Paramagnetic NMR                              
  Zikuan Wang            : NOTCH, Electric field optimization            
  Frank Wennmohs         : Technical directorship and infrastructure     
  Hang Xu                : AUTO-CI-Response properties                   
                                                                         
[FACCTs GmbH]                                                            
  Markus Bursch, Nicolas Foglia, Miquel Garcia-Rates, Ingolf Harden, Hagen Neugebauer, Anastasios Papadopoulos, 
  Christoph Riplinger, Bernardo de Souza, Georgi L. Stoychev                                                    
                                                                 
  APM, various basis sets, CI-OPT, improved COSX, DLPNO-Multilevel,           
  DOCKER, DRACO, updates on ESD, Fragmentator, GOAT, IRC, LR-CPCM, L-BFGS, MBIS, meta-GGA TD-DFT gradient, ML-optimized integration grids, 
  MM, NACMEs, nearIR, NEB, NEB-TS, NL-DFT gradient (VV10), 2- and 3-layer-ONIOM, interface openCOSMO-RS, QMMM,   
  Crystal-QMMM, RESP, rigid body optimization, SF, symmetry and pop. for TD-DFT, various functionals, SOLVATOR                                   
                                                                         
[Other institutions]                                                     
  V. Asgeirsson          : NEB                                           
  Christoph Bannwarth    : sTDA-DFT, sTD-DFT, PBEh-3c, B97-3c, D3        
  Giovanni Bistoni       : ETS/NOCV, ADLD/ADEX, COVALED                  
  Martin Brehm           : Molecular dynamics                            
  Ronald Cardenas        : ETS/NOCV                                      
  Martina Colucci        : COVALED                                       
  Sebastian Ehlert       : rSCAN, r2SCAN, r2SCAN-3c, D4, dhf basis sets  
  Marvin Friede          : D4 for Fr, Ra, Ac-Lr                          
  Lars Goerigk           : TD-DFT with DH, B97 family of functionals     
  Stefan Grimme          : VdW corrections, initial TS optimization, DFT functionals, gCP, sTDA/sTD-DF 
  Waldemar Hujo          : DFT-NL                                        
  H. Jonsson             : NEB                                           
  Holger Kruse           : gCP                                           
  Marcel Mueller         : wB97X-3c, vDZP basis set                      
  Hagen Neugebauer       : wr2SCAN, Native XTB                           
  Gianluca Regni         : ADLD/ADEX                                     
  Tobias Risthaus        : pre 6.0 range-separated hybrid DFT and stability analysis
  Lukas Wittmann         : regularized MP2, r2SCAN double-hybrids, wr2SCAN        
                                                                         
We gratefully acknowledge several colleagues who have allowed us to      
interface, adapt or use parts of their codes:                            
  Ed Valeev, F. Pavosevic, A. Kumar             : LibInt (2-el integral package), F12 methods 
  Garnet Chan, S. Sharma, J. Yang, R. Olivares  : DMRG                   
  Ulf Ekstrom                                   : XCFun DFT Library      
  Mihaly Kallay                                 : mrcc  (arbitrary order and MRCC methods)
  Frank Weinhold                                : gennbo (NPA and NBO analysis)           
  Simon Mueller                                 : openCOSMO-RS                            
  Christopher J. Cramer and Donald G. Truhlar   : smd solvation model                     
  S Lehtola, MJT Oliveira, MAL Marques          : LibXC Library                           
  Liviu Ungur et al                             : ANISO software                          


 Your calculation uses the libint2 library for the computation of 2-el integrals
 For citations please refer to: http://libint.valeyev.net

 Your ORCA version has been built with support for libXC version: 7.0.0
 For citations please refer to: https://libxc.gitlab.io

 This ORCA versions uses:
   CBLAS   interface :  Fast vector & matrix operations
   LAPACKE interface :  Fast linear algebra routines
   SCALAPACK package :  Parallel linear algebra routines
   Shared memory     :  Shared parallel matrices
   BLAS/LAPACK       :  OpenBLAS 0.3.29  USE64BITINT DYNAMIC_ARCH NO_AFFINITY Zen SINGLE_THREADED
        Core in use  :  Zen
   Copyright (c) 2011-2014, The OpenBLAS Project


  ***********************************
  * Starting time: Fri Apr 24 04:40:23 2026
  * Host name:     vmi3233575
  * Process ID:    1710257
  * Working dir.:  /root/b12_scan/jobs/trunc_tetrahedron_nn2.00
  ***********************************

NOTE: MaxCore=2500 MB was set to SCF,MP2,MDCI,CIPSI,MRCI,RASCI and CIS
      => If you want to overwrite this, your respective input block should be placed after the MaxCore statement
Your calculation utilizes the atom-pairwise dispersion correction
with the Becke-Johnson damping scheme (D3BJ)


================================================================================

----- Orbital basis set information -----
Your calculation utilizes the basis: def2-SVP
   F. Weigend and R. Ahlrichs, Phys. Chem. Chem. Phys. 7, 3297 (2005).

----- AuxJ basis set information -----
Your calculation utilizes the auxiliary basis: def2/J
   H-Rn: F. Weigend, Phys. Chem. Chem. Phys. 8, 1057 (2006).
   Fr-Lr: K. Eichkorn, F. Weigend, O. Treutler, R. Ahlrichs; Theor. Chem. Acc. 97, 119 (1997).

================================================================================
                                        WARNINGS
                       Please study these warnings very carefully!
================================================================================


WARNING: Geometry Optimization
  ===> : Switching off AutoStart
         For restart on a previous wavefunction, please use MOREAD

================================================================================
                                       INPUT FILE
================================================================================
NAME = trunc_tetrahedron_nn2.00.inp
|  1> ! BP86 def2-SVP def2/J RI Opt TightSCF D3BJ
|  2> ! SlowConv
|  3> 
|  4> %pal nprocs 8 end
|  5> %maxcore 2500
|  6> 
|  7> %geom
|  8>   MaxIter 300
|  9> end
| 10> 
| 11> * xyz 0 1
| 12> B     -2.35702260     -0.47140452      0.00000000
| 13> B     -2.35702260      0.94280904     -1.41421356
| 14> B     -2.35702260      0.94280904      1.41421356
| 15> B     -2.35702260      2.35702260      0.00000000
| 16> B      0.47140452     -3.29983165      0.00000000
| 17> B      0.47140452      0.94280904     -4.24264069
| 18> B      0.47140452      0.94280904      4.24264069
| 19> B      0.47140452      5.18544973      0.00000000
| 20> B      1.88561808     -3.29983165     -1.41421356
| 21> B      1.88561808     -3.29983165      1.41421356
| 22> B      1.88561808     -0.47140452     -4.24264069
| 23> B      1.88561808     -0.47140452      4.24264069
| 24> *
| 25> 
| 26>                          ****END OF INPUT****
================================================================================

                       *****************************
                       * Geometry Optimization Run *
                       *****************************

Geometry optimization settings:
Update method            Update   .... BFGS
Choice of coordinates    CoordSys .... (2022) Redundant Internals
Initial Hessian          InHess   .... Almloef's Model
Max. no of cycles        MaxIter  .... 300

Convergence Tolerances:
Energy Change            TolE     ....  5.0000e-06 Eh
Max. Gradient            TolMAXG  ....  3.0000e-04 Eh/bohr
RMS Gradient             TolRMSG  ....  1.0000e-04 Eh/bohr
Max. Displacement        TolMAXD  ....  4.0000e-03 bohr
RMS Displacement         TolRMSD  ....  2.0000e-03 bohr
Strict Convergence                .... False

------------------------------------------------------------------------------
                        ORCA OPTIMIZATION COORDINATE SETUP
------------------------------------------------------------------------------

The optimization will be done in redundant internal coordinates (2022)
Making redundant internal coordinates   ...  (2022 redundants) done
Evaluating the initial hessian          ...  (Almloef) done
Evaluating the coordinates              ...  done
Calculating the B-matrix                .... done
Calculating the G-matrix                .... done
The number of degrees of freedom        ....   67

    -----------------------------------------------------------------
                    Redundant Internal Coordinates


    -----------------------------------------------------------------
         Definition                    Initial Value    Approx d2E/dq
    -----------------------------------------------------------------
      1. B(B   1,B   0)                  2.0000         0.089157   
      2. B(B   2,B   0)                  2.0000         0.089157   
      3. B(B   3,B   2)                  2.0000         0.089157   
      4. B(B   3,B   1)                  2.0000         0.089157   
      5. B(B   4,B   0)                  4.0000         0.010000   
      6. B(B   5,B   1)                  4.0000         0.010000   
      7. B(B   6,B   2)                  4.0000         0.010000   
      8. B(B   7,B   3)                  4.0000         0.010000   
      9. B(B   8,B   4)                  2.0000         0.089157   
     10. B(B   9,B   4)                  2.0000         0.089157   
     11. B(B  10,B   5)                  2.0000         0.089157   
     12. B(B  10,B   8)                  4.0000         0.010000   
     13. B(B  11,B   9)                  4.0000         0.010000   
     14. B(B  11,B   6)                  2.0000         0.089157   
     15. A(B   2,B   0,B   4)          120.0000         0.117373   
     16. A(B   1,B   0,B   4)          120.0000         0.117373   
     17. A(B   1,B   0,B   2)           90.0000         0.238665   
     18. A(B   0,B   1,B   3)           90.0000         0.238665   
     19. A(B   0,B   1,B   5)          120.0000         0.117373   
     20. A(B   3,B   1,B   5)          120.0000         0.117373   
     21. A(B   0,B   2,B   3)           90.0000         0.238665   
     22. A(B   0,B   2,B   6)          120.0000         0.117373   
     23. A(B   3,B   2,B   6)          120.0000         0.117373   
     24. A(B   2,B   3,B   7)          120.0000         0.117373   
     25. A(B   1,B   3,B   7)          120.0000         0.117373   
     26. A(B   1,B   3,B   2)           90.0000         0.238665   
     27. A(B   8,B   4,B   9)           90.0000         0.238665   
     28. A(B   0,B   4,B   9)          120.0000         0.117373   
     29. A(B   0,B   4,B   8)          120.0000         0.117373   
     30. A(B   1,B   5,B  10)          120.0000         0.117373   
     31. A(B   2,B   6,B  11)          120.0000         0.117373   
     32. A(B   4,B   8,B  10)          120.0000         0.117373   
     33. A(B   4,B   9,B  11)          120.0000         0.117373   
     34. A(B   5,B  10,B   8)          120.0000         0.117373   
     35. A(B   6,B  11,B   9)          120.0000         0.117373   
     36. D(B   3,B   1,B   0,B   2)      0.0000         0.010000   
     37. D(B   3,B   1,B   0,B   4)   -125.2644         0.010000   
     38. D(B   5,B   1,B   0,B   2)    125.2644         0.010000   
     39. D(B   5,B   1,B   0,B   4)     -0.0000         0.010000   
     40. D(B   3,B   2,B   0,B   4)    125.2644         0.010000   
     41. D(B   3,B   2,B   0,B   1)      0.0000         0.010000   
     42. D(B   6,B   2,B   0,B   4)      0.0000         0.010000   
     43. D(B   6,B   2,B   0,B   1)   -125.2644         0.010000   
     44. D(B   1,B   3,B   2,B   6)    125.2644         0.010000   
     45. D(B   1,B   3,B   2,B   0)      0.0000         0.010000   
     46. D(B   7,B   3,B   1,B   5)      0.0000         0.010000   
     47. D(B   7,B   3,B   1,B   0)    125.2644         0.010000   
     48. D(B   2,B   3,B   1,B   5)   -125.2644         0.010000   
     49. D(B   7,B   3,B   2,B   0)   -125.2644         0.010000   
     50. D(B   2,B   3,B   1,B   0)      0.0000         0.010000   
     51. D(B   7,B   3,B   2,B   6)      0.0000         0.010000   
     52. D(B   9,B   4,B   0,B   2)     -0.0000         0.010000   
     53. D(B   9,B   4,B   0,B   1)    109.4712         0.010000   
     54. D(B   8,B   4,B   0,B   2)   -109.4712         0.010000   
     55. D(B   8,B   4,B   0,B   1)      0.0000         0.010000   
     56. D(B  10,B   5,B   1,B   3)    109.4712         0.010000   
     57. D(B  10,B   5,B   1,B   0)     -0.0000         0.010000   
     58. D(B  11,B   6,B   2,B   3)   -109.4712         0.010000   
     59. D(B  11,B   6,B   2,B   0)      0.0000         0.010000   
     60. D(B  10,B   8,B   4,B   0)     -0.0000         0.010000   
     61. D(B  10,B   8,B   4,B   9)   -125.2644         0.010000   
     62. D(B  11,B   9,B   4,B   0)      0.0000         0.010000   
     63. D(B  11,B   9,B   4,B   8)    125.2644         0.010000   
     64. D(B   5,B  10,B   8,B   4)     -0.0000         0.010000   
     65. D(B   8,B  10,B   5,B   1)      0.0000         0.010000   
     66. D(B   9,B  11,B   6,B   2)     -0.0000         0.010000   
     67. D(B   6,B  11,B   9,B   4)      0.0000         0.010000   
    -----------------------------------------------------------------

Number of atoms                         .... 12
Number of degrees of freedom            .... 67


         *************************************************************
         *                GEOMETRY OPTIMIZATION CYCLE   1            *
         *************************************************************
---------------------------------
CARTESIAN COORDINATES (ANGSTROEM)
---------------------------------
  B     -2.357023   -0.471405    0.000000
  B     -2.357023    0.942809   -1.414214
  B     -2.357023    0.942809    1.414214
  B     -2.357023    2.357023    0.000000
  B      0.471405   -3.299832    0.000000
  B      0.471405    0.942809   -4.242641
  B      0.471405    0.942809    4.242641
  B      0.471405    5.185450    0.000000
  B      1.885618   -3.299832   -1.414214
  B      1.885618   -3.299832    1.414214
  B      1.885618   -0.471405   -4.242641
  B      1.885618   -0.471405    4.242641

----------------------------
CARTESIAN COORDINATES (A.U.)
----------------------------
  NO LB      ZA    FRAG     MASS         X           Y           Z
   0 B     5.0000    0    10.810   -4.454127   -0.890825    0.000000
   1 B     5.0000    0    10.810   -4.454127    1.781651   -2.672476
   2 B     5.0000    0    10.810   -4.454127    1.781651    2.672476
   3 B     5.0000    0    10.810   -4.454127    4.454127    0.000000
   4 B     5.0000    0    10.810    0.890825   -6.235778    0.000000
   5 B     5.0000    0    10.810    0.890825    1.781651   -8.017429
   6 B     5.0000    0    10.810    0.890825    1.781651    8.017429
   7 B     5.0000    0    10.810    0.890825    9.799080    0.000000
   8 B     5.0000    0    10.810    3.563302   -6.235778   -2.672476
   9 B     5.0000    0    10.810    3.563302   -6.235778    2.672476
  10 B     5.0000    0    10.810    3.563302   -0.890825   -8.017429
  11 B     5.0000    0    10.810    3.563302   -0.890825    8.017429

--------------------------------
INTERNAL COORDINATES (ANGSTROEM)
--------------------------------
 B      0   0   0     0.000000000000     0.00000000     0.00000000
 B      1   0   0     1.999999996644     0.00000000     0.00000000
 B      1   2   0     1.999999996644    90.00000000     0.00000000
 B      2   1   3     1.999999996644    90.00000000     0.00000000
 B      1   2   3     4.000000000359   120.00000006   234.73561022
 B      2   1   3     4.000000000359   120.00000006   125.26438978
 B      3   1   2     4.000000000359   120.00000006   234.73561022
 B      4   2   1     4.000000000359   120.00000006   125.26438978
 B      5   1   2     1.999999996644   119.99999994     0.00000000
 B      5   1   2     1.999999996644   119.99999994   109.47122063
 B      6   2   1     1.999999996644   119.99999994     0.00000000
 B      7   3   1     1.999999996644   119.99999994     0.00000000

---------------------------
INTERNAL COORDINATES (A.U.)
---------------------------
 B      0   0   0     0.000000000000     0.00000000     0.00000000
 B      1   0   0     3.779452261500     0.00000000     0.00000000
 B      1   2   0     3.779452261500    90.00000000     0.00000000
 B      2   1   3     3.779452261500    90.00000000     0.00000000
 B      1   2   3     7.558904536363   120.00000006   234.73561022
 B      2   1   3     7.558904536363   120.00000006   125.26438978
 B      3   1   2     7.558904536363   120.00000006   234.73561022
 B      4   2   1     7.558904536363   120.00000006   125.26438978
 B      5   1   2     3.779452261500   119.99999994     0.00000000
 B      5   1   2     3.779452261500   119.99999994   109.47122063
 B      6   2   1     3.779452261500   119.99999994     0.00000000
 B      7   3   1     3.779452261500   119.99999994     0.00000000

---------------------
BASIS SET INFORMATION
---------------------
There are 1 groups of distinct atoms

 Group   1 Type B   : 7s4p1d contracted to 3s2p1d pattern {511/31/1}

Atom   0B    basis set group =>   1
Atom   1B    basis set group =>   1
Atom   2B    basis set group =>   1
Atom   3B    basis set group =>   1
Atom   4B    basis set group =>   1
Atom   5B    basis set group =>   1
Atom   6B    basis set group =>   1
Atom   7B    basis set group =>   1
Atom   8B    basis set group =>   1
Atom   9B    basis set group =>   1
Atom  10B    basis set group =>   1
Atom  11B    basis set group =>   1
---------------------------------
AUXILIARY/J BASIS SET INFORMATION
---------------------------------
There are 1 groups of distinct atoms

 Group   1 Type B   : 12s5p4d2f1g contracted to 6s4p3d1f1g pattern {711111/2111/211/2/1}

Atom   0B    basis set group =>   1
Atom   1B    basis set group =>   1
Atom   2B    basis set group =>   1
Atom   3B    basis set group =>   1
Atom   4B    basis set group =>   1
Atom   5B    basis set group =>   1
Atom   6B    basis set group =>   1
Atom   7B    basis set group =>   1
Atom   8B    basis set group =>   1
Atom   9B    basis set group =>   1
Atom  10B    basis set group =>   1
Atom  11B    basis set group =>   1


           ************************************************************
           *        Program running with 8 parallel MPI-processes     *
           *              working on a common directory               *
           ************************************************************
------------------------------------------------------------------------------
                             ORCA STARTUP CALCULATIONS
                           -- RI-GTO INTEGRALS CHOSEN --
------------------------------------------------------------------------------
------------------------------------------------------------------------------
                   ___                                                        
                  /   \      - P O W E R E D   B Y -                         
                 /     \                                                     
                 |  |  |   _    _      __       _____    __    __             
                 |  |  |  | |  | |    /  \     |  _  \  |  |  /  |          
                  \  \/   | |  | |   /    \    | | | |  |  | /  /          
                 / \  \   | |__| |  /  /\  \   | |_| |  |  |/  /          
                |  |  |   |  __  | /  /__\  \  |    /   |      \           
                |  |  |   | |  | | |   __   |  |    \   |  |\   \          
                \     /   | |  | | |  |  |  |  | |\  \  |  | \   \       
                 \___/    |_|  |_| |__|  |__|  |_| \__\ |__|  \__/        
                                                                              
                      - O R C A' S   B I G   F R I E N D -                    
                                      &                                       
                       - I N T E G R A L  F E E D E R -                       
                                                                              
 v1 FN, 2020, v2 2021, v3 2022-2024                                           
------------------------------------------------------------------------------


----------------------
SHARK INTEGRAL PACKAGE
----------------------

Number of atoms                             ...     12
Number of basis functions                   ...    168
Number of shells                            ...     72
Maximum angular momentum                    ...      2
Integral batch strategy                     ... SHARK/LIBINT Hybrid
RI-J (if used) integral strategy            ... SPLIT-RIJ (Revised 2003 algorithm where possible)
Printlevel                                  ...      1
Contraction scheme used                     ... SEGMENTED contraction
Prescreening option                         ... SCHWARTZ
   Thresh                                   ... 2.500e-11
   Tcut                                     ... 2.500e-12
   Tpresel                                  ... 2.500e-12 
Coulomb Range Separation                    ... NOT USED
Exchange Range Separation                   ... NOT USED
Multipole approximations                    ... NOT USED
Finite Nucleus Model                        ... NOT USED
CABS basis                                  ... NOT available
Auxiliary Coulomb fitting basis             ... AVAILABLE
   # of basis functions in Aux-J            ...    588
   # of shells in Aux-J                     ...    180
   Maximum angular momentum in Aux-J        ...      4
Auxiliary J/K fitting basis                 ... NOT available
Auxiliary Correlation fitting basis         ... NOT available
Auxiliary 'external' fitting basis          ... NOT available

Checking pre-screening integrals            ... done (  0.0 sec) Dimension = 72
   => SHARK Basis and OBASIS are compatible. Storing Pre-screening
Shell pair information
Shell pair cut-off parameter TPreSel        ...   2.5e-12
Total number of shell pairs                 ...      2628
Shell pairs after pre-screening             ...      2179
Total number of primitive shell pairs       ...     10596
Primitive shell pairs kept                  ...      5544
          la=0 lb=0:    535 shell pairs
          la=1 lb=0:    752 shell pairs
          la=1 lb=1:    285 shell pairs
          la=2 lb=0:    304 shell pairs
          la=2 lb=1:    250 shell pairs
          la=2 lb=2:     53 shell pairs

Checking whether 4 symmetric matrices of dimension 168 fit in memory
:Max Core in MB      =   2500.00
 MB in use           =      6.14
 MB left             =   2493.86
 MB needed           =      0.43
 Data fit in memory  = YES
Calculating RI/J V-Matrix + Cholesky decomp.... done (  0.0 sec)
Calculating Nuclear repulsion               ... done (  0.0 sec) ENN=    190.387383077362 Eh

Diagonalization of the overlap matrix:
Smallest eigenvalue                        ... 1.782e-03
Time for diagonalization                   ...    0.005 sec
Threshold for overlap eigenvalues          ... 1.000e-07
Number of eigenvalues below threshold      ... 0
Time for construction of square roots      ...    0.006 sec
Total time needed                          ...    0.017 sec

-------------------
DFT GRID GENERATION
-------------------

General Integration Accuracy     IntAcc      ... 4.388
Radial Grid Type                 RadialGrid  ... OptM3 with GC (2021)
Angular Grid (max. ang.)         AngularGrid ... 4 (Lebedev-302)
Angular grid pruning method      GridPruning ... 4 (adaptive)
Weight generation scheme         WeightScheme... mBecke (2022)
Basis function cutoff            BFCut       ... 1.0000e-11
Integration weight cutoff        WCut        ... 1.0000e-14
Partially contracted basis set               ... off
Rotationally invariant grid construction     ... off
Angular grids for H and He will be reduced by one unit

Total number of grid points                  ...    73286
Total number of batches                      ...     1151
Average number of points per batch           ...       63
Average number of grid points per atom       ...     6107
Grids setup in   0.8 sec
Initializing property integral containers    ... done (  0.0 sec)

SHARK setup successfully completed in   0.9 seconds

Maximum memory used throughout the entire STARTUP-calculation: 19.4 MB


           ************************************************************
           *        Program running with 8 parallel MPI-processes     *
           *              working on a common directory               *
           ************************************************************
-------------------------------------------------------------------------------
                                 ORCA GUESS
                   Start orbitals & Density for SCF / CASSCF
-------------------------------------------------------------------------------

------------
SCF SETTINGS
------------
Hamiltonian:
 Density Functional     Method          .... DFT(GTOs)
 Exchange Functional    Exchange        .... B88
   X-Alpha parameter    XAlpha          ....  0.666667
   Becke's b parameter  XBeta           ....  0.004200
 Correlation Functional Correlation     .... P86
 LDA part of GGA corr.  LDAOpt          .... PW91-LDA
 Gradients option       PostSCFGGA      .... off
   NL short-range parameter             ....  4.400000
 RI-approximation to the Coulomb term is turned on
   Number of AuxJ basis functions       .... 588


General Settings:
 Integral files         IntName         .... trunc_tetrahedron_nn2.00
 Hartree-Fock type      HFTyp           .... RHF
 Total Charge           Charge          ....    0
 Multiplicity           Mult            ....    1
 Number of Electrons    NEL             ....   60
 Basis Dimension        Dim             ....  168
 Nuclear Repulsion      ENuc            ....    190.3873830774 Eh

Convergence Acceleration:
 AO-DIIS                CNVDIIS         .... on
   Start iteration      DIISMaxIt       ....     0
   Startup error        DIISStart       ....  0.200000
   # of expansion vecs  DIISMaxEq       ....     5
   Bias factor          DIISBfac        ....   1.050
   Max. coefficient     DIISMaxC        ....  10.000
 MO-DIIS                CNVKDIIS        .... off
 Trust-Rad. Augm. Hess. CNVTRAH         .... auto
   Auto Start mean grad. ratio tolernc. ....  1.125000
   Auto Start start iteration           ....    50
   Auto Start num. interpolation iter.  ....    10
   Max. Number of Micro iterations      ....    24
   Max. Number of Macro iterations      .... Maxiter - #DIIS iter
   Number of Davidson start vectors     ....     2
   Converg. threshold    (grad. norm)   ....   1.000e-05
   Grad. Scal. Fac. for Micro threshold ....   0.100
   Minimum threshold for Micro iter.    ....   1.000e-02
   NR start threshold (gradient norm)   ....   1.000e-04
   Initial trust radius                 ....   0.400
   Minimum AH scaling param. (alpha)    ....   1.000
   Maximum AH scaling param. (alpha)    .... 1000.000
   Quad. conv. algorithm                .... NR
   White noise on init. David. guess    .... on
   Maximum white noise                  ....   0.010
   Pseudo random numbers                .... off
   Inactive MOs                         .... canonical
   Orbital update algorithm             .... Taylor
   Preconditioner                       .... Diag
   Full preconditioner red. dimension   ....   250
 SOSCF                 CNVSOSCF           .... on
   Start iteration     SOSCFMaxIt         ....   150
   Startup grad/error  SOSCFStart         ....  0.001000
   Hessian update      SOSCFHessUp        .... L-BFGS
   Autom. constraints  SOSCFAutoConstrain .... off
 Level Shifting         CNVShift        .... on
   Level shift para.    LevelShift      ....    0.2500
   Turn off err/grad.   ShiftErr        ....    0.0000
 Zerner damping         CNVZerner       .... off
 Static damping         CNVDamp         .... on
   Fraction old density DampFac         ....    0.8500
   Max. Damping (<1)    DampMax         ....    0.9800
   Min. Damping (>=0)   DampMin         ....    0.0000
   Turn off err/grad.   DampErr         ....    0.0300

SCF Procedure:
 Maximum # iterations   MaxIter         ....   125
 SCF integral mode      SCFMode         .... Direct
   Integral package                     .... SHARK and LIBINT hybrid scheme
 Reset frequency        DirectResetFreq ....    20
 Integral Threshold     Thresh          ....  2.500e-11 Eh
 Primitive CutOff       TCut            ....  2.500e-12 Eh

Convergence Tolerance:
 Convergence Check Mode ConvCheckMode   .... Total+1el-Energy
 Convergence forced     ConvForced      .... 0
 Energy Change          TolE            ....  1.000e-08 Eh
 1-El. energy change                    ....  1.000e-05 Eh
 Orbital Gradient       TolG            ....  1.000e-05
 Orbital Rotation angle TolX            ....  1.000e-05
 DIIS Error             TolErr          ....  5.000e-07

------------------------------
INITIAL GUESS: MODEL POTENTIAL
------------------------------
Loading Hartree-Fock densities                     ... done
Calculating cut-offs                               ... done
Initializing the effective Hamiltonian             ... done
Setting up the integral package (SHARK)            ... done
Starting the Coulomb interaction                   ... done (   0.0 sec)
Making the grid                                    ... done (   0.2 sec)
Mapping shells                                     ... done
Starting the XC term evaluation                    ... done (   0.1 sec)
  promolecular density results
     # of electrons  =     60.000224612
     EX              =    -44.533172203
     EC              =     -1.709172416
     EX+EC           =    -46.242344619
Transforming the Hamiltonian                       ... done (   0.0 sec)
Diagonalizing the Hamiltonian                      ... done (   0.0 sec)
Back transforming the eigenvectors                 ... done (   0.0 sec)
Now organizing SCF variables                       ... done
                      ------------------
                      INITIAL GUESS DONE (   0.3 sec)
                      ------------------
             **** ENERGY FILE WAS UPDATED (trunc_tetrahedron_nn2.00.en.tmp) ****
Finished Guess after   0.8 sec
Maximum memory used throughout the entire GUESS-calculation: 8.8 MB


           ************************************************************
           *        Program running with 8 parallel MPI-processes     *
           *              working on a common directory               *
           ************************************************************

-------------------------------------------------------------------------------------------
                                      ORCA LEAN-SCF
                              memory conserving SCF solver
-------------------------------------------------------------------------------------------

----------------------------------------D-I-I-S--------------------------------------------
Iteration    Energy (Eh)           Delta-E    RMSDP     MaxDP     DIISErr   Damp  Time(sec)
-------------------------------------------------------------------------------------------
               ***  Starting incremental Fock matrix formation  ***
    1    -294.5436988134302965     0.00e+00  2.37e-02  2.08e-01  2.36e-01  0.850   0.2
Warning: op=0 Small HOMO/LUMO gap (  -0.427) - skipping pre-diagonalization
         LevelShift set to 0.527 Eh
         Will do a full diagonalization
    2    -295.5357057003813566    -9.92e-01  1.68e-02  1.15e-01  9.14e-02  0.850   0.2
                               ***Turning on AO-DIIS***
    3    -294.6816464545595977     8.54e-01  1.33e-02  9.56e-02  7.78e-02  0.850   0.2
    4    -293.1453465618220093     1.54e+00  1.07e-02  8.00e-02  1.57e-01  0.850   0.2
    5    -291.5480742187420446     1.60e+00  8.93e-03  6.72e-02  2.28e-01  0.850   0.3
    6    -290.1076997046795896     1.44e+00  7.52e-03  5.55e-02  2.72e-01  0.850   0.2
    7    -288.9336715638955866     1.17e+00  6.77e-03  4.40e-02  3.14e-01  0.850   0.4
    8    -288.3368461156080116     5.97e-01  9.76e-03  8.29e-02  3.85e-01  0.850   0.3
    9    -289.2148829905011098    -8.78e-01  1.52e-02  1.21e-01  4.13e-01  0.850   0.2
   10    -291.7015163263893669    -2.49e+00  1.69e-02  1.63e-01  3.25e-01  0.850   0.3
   11    -293.8657828303514066    -2.16e+00  1.33e-02  1.13e-01  1.81e-01  0.850   0.2
   12    -294.7513641502083601    -8.86e-01  1.02e-02  6.47e-02  7.50e-02  0.850   0.4
   13    -294.8850913784434056    -1.34e-01  8.13e-03  4.10e-02  5.55e-02  0.850   0.2
   14    -294.7155356005598037     1.70e-01  6.82e-03  5.58e-02  1.10e-01  0.850   0.2
   15    -294.4815876676334483     2.34e-01  5.97e-03  7.41e-02  1.63e-01  0.850   0.3
   16    -294.2614315273611965     2.20e-01  5.31e-03  7.49e-02  1.91e-01  0.850   0.2
   17    -294.0709190154226462     1.91e-01  4.74e-03  6.82e-02  1.98e-01  0.850   0.2
   18    -293.9120587274909440     1.59e-01  4.70e-03  6.91e-02  2.18e-01  0.850   0.2
   19    -293.8290997358832328     8.30e-02  5.53e-03  7.22e-02  2.28e-01  0.850   0.3
   20    -293.9145074304259992    -8.54e-02  7.72e-03  7.20e-02  2.21e-01  0.850   0.3
               *** Restarting incremental Fock matrix formation ***
                             ****Resetting DIIS****
Warning: op=0 Small HOMO/LUMO gap (  -0.688) - skipping pre-diagonalization
         LevelShift set to 0.788 Eh
         Will do a full diagonalization
   21    -294.3054135034884666    -3.91e-01  1.28e-02  1.05e-01  1.85e-01  0.850   0.2
   22    -295.0845633482176140    -7.79e-01  1.03e-02  7.52e-02  1.40e-01  0.850   0.2
   23    -295.4505419823384500    -3.66e-01  8.26e-03  5.72e-02  1.21e-01  0.850   0.2
   24    -295.5653255447062406    -1.15e-01  6.87e-03  4.39e-02  9.53e-02  0.850   0.2
   25    -295.5573083824560854     8.02e-03  5.93e-03  3.42e-02  6.44e-02  0.850   0.2
   26    -295.4961977735516143     6.11e-02  5.23e-03  2.70e-02  8.03e-02  0.850   0.2
   27    -295.4144966799468079     8.17e-02  4.67e-03  2.48e-02  1.06e-01  0.850   0.2
   28    -295.3287130958015609     8.58e-02  4.24e-03  2.65e-02  1.25e-01  0.850   0.2
   29    -295.2499629319092378     7.88e-02  4.05e-03  2.87e-02  1.39e-01  0.850   0.2
   30    -295.1972508804897188     5.27e-02  4.11e-03  3.03e-02  1.44e-01  0.850   0.2
   31    -295.1926603157031082     4.59e-03  4.48e-03  4.17e-02  1.49e-01  0.850   0.2
   32    -295.2618665744222426    -6.92e-02  5.20e-03  5.00e-02  1.77e-01  0.850   0.3
   33    -295.4113838320157583    -1.50e-01  5.66e-03  4.59e-02  1.96e-01  0.850   0.4
   34    -295.5981714891043453    -1.87e-01  5.48e-03  5.88e-02  1.92e-01  0.850   0.5
   35    -295.7581646135867004    -1.60e-01  4.94e-03  5.15e-02  1.68e-01  0.850   0.3
   36    -295.8722175300616755    -1.14e-01  4.33e-03  5.42e-02  1.32e-01  0.850   0.2
   37    -295.9463114392780767    -7.41e-02  3.78e-03  5.32e-02  9.46e-02  0.850   0.2
   38    -295.9933478852469761    -4.70e-02  3.30e-03  4.82e-02  5.94e-02  0.850   0.3
   39    -296.0245800391973034    -3.12e-02  2.90e-03  4.09e-02  3.65e-02  0.850   0.2
   40    -296.0474177760141856    -2.28e-02  2.57e-03  3.22e-02  2.78e-02  0.850   0.2
               *** Restarting incremental Fock matrix formation ***
                             ****Resetting DIIS****
Warning: op=0 Small HOMO/LUMO gap (  -0.113) - skipping pre-diagonalization
         Will do a full diagonalization
   41    -296.0656269976208819    -1.82e-02  3.23e-02  5.44e-01  2.51e-02  0.000   0.2
   42    -295.2326698377729031     8.33e-01  5.89e-03  8.37e-02  4.67e-01  0.000   0.3
   43    -294.9332397501562468     2.99e-01  6.33e-04  6.44e-03  4.97e-01  0.850   0.2
   44    -294.8883549639641615     4.49e-02  1.07e-03  1.16e-02  5.00e-01  0.850   0.2
   45    -294.8077961280412183     8.06e-02  1.37e-03  1.54e-02  5.03e-01  0.850   0.2
   46    -294.6988032912653921     1.09e-01  6.78e-03  9.76e-02  5.05e-01  0.850   0.2
   47    -295.1103513638204277    -4.12e-01  1.17e-02  1.67e-01  3.95e-01  0.850   0.2
   48    -295.6919043869064012    -5.82e-01  8.28e-03  1.42e-01  1.95e-01  0.850   0.3
   49    -295.8646113017052244    -1.73e-01  6.47e-03  1.18e-01  8.83e-02  0.850   0.2
   50    -295.8932126484177729    -2.86e-02  4.78e-03  5.68e-02  3.98e-02  0.850   0.2
   51    -295.9055322192912172    -1.23e-02  3.94e-03  4.80e-02  3.57e-02  0.850   0.2
   52    -295.9332548543781058    -2.77e-02  3.54e-03  5.29e-02  4.05e-02  0.850   0.4
   53    -295.9577940746115701    -2.45e-02  3.12e-03  5.31e-02  4.20e-02  0.850   0.3
   54    -295.9732023286398999    -1.54e-02  2.71e-03  4.88e-02  3.86e-02  0.850   0.3
   55    -295.9810989221146542    -7.90e-03  2.43e-03  5.24e-02  3.36e-02  0.850   0.2
   56    -295.9857087350131337    -4.61e-03  2.31e-03  5.49e-02  3.48e-02  0.850   0.2
   57    -295.9945394470236693    -8.83e-03  2.59e-03  5.14e-02  4.27e-02  0.850   0.3

       ******************************************************************************
       ***                                                                        ***
       ***                               Auto-TRAH                                ***
       ***                               ---------                                ***
       *** the maximum gradient error decreased on average only by a factor   1.0 ***
       *** during the last  10 iterations                                         ***
       ***                                                                        ***
       ***               Leaving SCF to start the TRAH-SCF procedure              ***
       ***                                                                        ***
       ******************************************************************************

 --------------------------------------------------------------------------------------------
   Iter.        energy            ||Error||_2        Shift      TRadius  Mac/Mic        Rej.
 --------------------------------------------------------------------------------------------
    0       -295.893731038364     1.581968e+00                     0.400 (TRAH MAcro)   No
WARNING: 81 diagonal Hessian elements are negative!
WARNING : negative HOMO - LUMO gap : -0.280638
WARNING : negative HOMO - LUMO gap : -0.280638
    0     dE    -2.617648e-01     3.003510e-01    -4.7724e-01      0.311 (TRAH MIcro)
    0     dE    -2.868820e-01     2.250736e-01    -5.2994e-01      0.400 (TRAH MIcro)
    0     dE    -2.878335e-01     2.184351e-01    -5.7296e-01      0.400 (TRAH MIcro)
    0     dE    -2.937040e-01     2.025832e-01    -6.6589e-01      0.400 (TRAH MIcro)
    0     dE    -2.992968e-01     1.717982e-01    -7.5249e-01      0.400 (TRAH MIcro)
    0     dE    -2.843055e-01     1.062207e-01    -9.9370e-01      0.347 (TRAH MIcro)
    0     dE    -2.897393e-01     8.427391e-02    -9.9839e-01      0.359 (TRAH MIcro)
    0     dE    -2.941122e-01     9.801543e-02    -1.0029e+00      0.367 (TRAH MIcro)
    0     dE    -2.592658e-01     5.538185e-02    -1.5578e+00      0.277 (TRAH MIcro)
    0     dE    -2.589410e-01     1.235264e-02    -1.5606e+00      0.275 (TRAH MIcro)
    0     dE    -2.589674e-01     3.168034e-03    -1.5607e+00      0.275 (TRAH MIcro)
    1       -296.150525152953     4.440653e-01                     0.480 (TRAH MAcro)   No
WARNING: 15 diagonal Hessian elements are negative!
WARNING : negative HOMO - LUMO gap : -0.062644
WARNING : negative HOMO - LUMO gap : -0.062644
    1     dE    -2.639382e-02     1.436251e-01    -5.1997e-02      0.123 (TRAH MIcro)
    1     dE    -2.811689e-02     1.065919e-01    -5.5064e-02      0.146 (TRAH MIcro)
    1     dE    -3.205078e-02     9.747624e-02    -5.8938e-02      0.296 (TRAH MIcro)
    1     dE    -3.581075e-02     5.843789e-02    -6.2218e-02      0.389 (TRAH MIcro)
    1     dE    -3.628283e-02     3.463848e-02    -6.3397e-02      0.380 (TRAH MIcro)
    1     dE    -3.555577e-02     2.492617e-02    -6.3878e-02      0.337 (TRAH MIcro)
    1     dE    -3.537185e-02     1.892842e-02    -6.4000e-02      0.325 (TRAH MIcro)
    1     dE    -3.522796e-02     1.245615e-02    -6.4113e-02      0.315 (TRAH MIcro)
    1     dE    -3.514386e-02     1.282444e-02    -6.4213e-02      0.308 (TRAH MIcro)
    1     dE    -3.540847e-02     4.524595e-02    -6.4708e-02      0.307 (TRAH MIcro)
    1     dE    -4.203763e-02     1.213327e-01    -7.9291e-02      0.480 (TRAH MIcro)
    1     dE    -4.400090e-02     7.113499e-02    -1.0446e-01      0.480 (TRAH MIcro)
    1     dE    -3.697625e-02     3.801023e-02    -1.3514e-01      0.309 (TRAH MIcro)
    1     dE    -3.991367e-02     2.777929e-02    -1.3605e-01      0.367 (TRAH MIcro)
    1     dE    -4.079391e-02     1.621000e-02    -1.3666e-01      0.381 (TRAH MIcro)
    1     dE    -4.283730e-02     3.142095e-02    -1.3724e-01      0.415 (TRAH MIcro)
    1     dE    -4.737381e-02     5.137590e-02    -1.4147e-01      0.480 (TRAH MIcro)
    1     dE    -4.793491e-02     4.334418e-02    -1.4671e-01      0.480 (TRAH MIcro)
    1     dE    -3.235857e-02     2.526588e-02    -2.2384e-01      0.181 (TRAH MIcro)
    1     dE    -3.221490e-02     8.985431e-03    -2.2488e-01      0.174 (TRAH MIcro)
    2       -296.183642182639     7.264781e-02                     0.576 (TRAH MAcro)   No
WARNING: 7 diagonal Hessian elements are negative!
WARNING : negative HOMO - LUMO gap : -0.014166
WARNING : negative HOMO - LUMO gap : -0.014166
    2     dE    -8.929951e-04     5.079779e-02    -1.7841e-03      0.032 (TRAH MIcro)
    2     dE    -1.209301e-03     4.111817e-02    -2.4130e-03      0.048 (TRAH MIcro)
    2     dE    -2.393295e-03     4.725225e-02    -4.5217e-03      0.242 (TRAH MIcro)
    2     dE    -2.830046e-03     4.255079e-02    -5.2293e-03      0.287 (TRAH MIcro)
    2     dE    -3.033919e-03     3.311563e-02    -5.5604e-03      0.302 (TRAH MIcro)
    2     dE    -3.239715e-03     2.061362e-02    -5.8959e-03      0.315 (TRAH MIcro)
    2     dE    -3.321028e-03     1.339405e-02    -6.1117e-03      0.295 (TRAH MIcro)
    2     dE    -3.361727e-03     1.136304e-02    -6.1933e-03      0.293 (TRAH MIcro)
    2     dE    -3.427508e-03     1.445501e-02    -6.3059e-03      0.295 (TRAH MIcro)
    2     dE    -3.762555e-03     3.389650e-02    -6.7365e-03      0.342 (TRAH MIcro)
    2     dE    -4.393246e-03     3.813241e-02    -7.2596e-03      0.459 (TRAH MIcro)
    2     dE    -5.181682e-03     3.138245e-02    -8.3138e-03      0.576 (TRAH MIcro)
    2     dE    -5.268005e-03     1.651422e-02    -9.1004e-03      0.576 (TRAH MIcro)
    2     dE    -5.312289e-03     9.751596e-03    -9.5260e-03      0.576 (TRAH MIcro)
    2     dE    -5.325013e-03     6.214112e-03    -9.6323e-03      0.576 (TRAH MIcro)
    3       -296.185191137156     1.067313e-01                     0.576 (TRAH MAcro)   No
WARNING: 23 diagonal Hessian elements are negative!
WARNING : negative HOMO - LUMO gap : -0.022819
WARNING : negative HOMO - LUMO gap : -0.022819
    3     dE    -2.210660e-03     4.688433e-02    -4.4052e-03      0.061 (TRAH MIcro)
    3     dE    -2.572582e-03     4.489726e-02    -5.1061e-03      0.088 (TRAH MIcro)
    3     dE    -2.791305e-03     3.902353e-02    -5.5063e-03      0.118 (TRAH MIcro)
    3     dE    -3.064318e-03     4.097171e-02    -5.9814e-03      0.157 (TRAH MIcro)
    3     dE    -5.176857e-03     5.677130e-02    -8.3097e-03      0.496 (TRAH MIcro)
    3     dE    -6.181266e-03     5.113773e-02    -1.0031e-02      0.576 (TRAH MIcro)
    3     dE    -6.772422e-03     4.940385e-02    -1.4126e-02      0.576 (TRAH MIcro)
    3     dE    -7.604649e-03     5.037801e-02    -1.9896e-02      0.576 (TRAH MIcro)
    3     dE    -7.697917e-03     5.508167e-02    -2.0228e-02      0.576 (TRAH MIcro)
    3     dE    -7.821912e-03     5.070672e-02    -2.1310e-02      0.576 (TRAH MIcro)
    3     dE    -8.634635e-03     6.148895e-02    -3.3034e-02      0.516 (TRAH MIcro)
    3     dE    -1.108176e-02     6.638228e-02    -4.0924e-02      0.576 (TRAH MIcro)
    3     dE    -1.214969e-02     8.809872e-02    -4.7692e-02      0.576 (TRAH MIcro)
    3     dE    -1.537950e-02     6.255784e-02    -6.9855e-02      0.576 (TRAH MIcro)
    3     dE    -3.137325e-03     2.021001e-02    -1.1871e-01      0.106 (TRAH MIcro)
    3     dE    -3.125140e-03     1.273323e-02    -1.2356e-01      0.095 (TRAH MIcro)
    3     dE    -3.163882e-03     6.041918e-03    -1.2478e-01      0.095 (TRAH MIcro)
    4       -296.188154174947     1.152983e-02                     0.691 (TRAH MAcro)   No
WARNING: 7 diagonal Hessian elements are negative!
WARNING : negative HOMO - LUMO gap : -0.006983
WARNING : negative HOMO - LUMO gap : -0.006983
    4     dE    -1.848840e-04     2.914180e-02    -3.6907e-04      0.043 (TRAH MIcro)
    4     dE    -2.953853e-04     3.557718e-02    -5.8790e-04      0.070 (TRAH MIcro)
    4     dE    -8.436743e-04     3.694360e-02    -1.6227e-03      0.200 (TRAH MIcro)
    4     dE    -9.831786e-04     3.314208e-02    -1.8689e-03      0.228 (TRAH MIcro)
    4     dE    -1.177772e-03     2.099271e-02    -2.1891e-03      0.276 (TRAH MIcro)
    4     dE    -1.271427e-03     1.741104e-02    -2.3318e-03      0.301 (TRAH MIcro)
    4     dE    -1.410739e-03     1.530190e-02    -2.5199e-03      0.346 (TRAH MIcro)
    4     dE    -1.510423e-03     1.239736e-02    -2.6339e-03      0.383 (TRAH MIcro)
    4     dE    -1.638125e-03     1.586584e-02    -2.7674e-03      0.429 (TRAH MIcro)
    4     dE    -1.643125e-03     1.592106e-02    -2.7738e-03      0.430 (TRAH MIcro)
    4     dE    -1.879858e-03     2.241902e-02    -3.0015e-03      0.503 (TRAH MIcro)
    4     dE    -2.317032e-03     3.073554e-02    -3.3529e-03      0.618 (TRAH MIcro)
    4     dE    -2.665159e-03     2.108257e-02    -3.7693e-03      0.691 (TRAH MIcro)
    4     dE    -2.712863e-03     1.807322e-02    -4.0362e-03      0.691 (TRAH MIcro)
    4     dE    -2.733508e-03     1.762592e-02    -4.1453e-03      0.691 (TRAH MIcro)
    4     dE    -2.763008e-03     2.173135e-02    -4.3530e-03      0.689 (TRAH MIcro)
    4     dE    -2.891126e-03     3.595145e-02    -5.0422e-03      0.691 (TRAH MIcro)
    4     dE    -2.746329e-03     3.584420e-02    -9.7556e-03      0.554 (TRAH MIcro)
    4     dE    -1.800682e-03     1.632874e-02    -1.5636e-02      0.340 (TRAH MIcro)
    4     dE    -9.628723e-04     4.864328e-03    -2.8728e-02      0.159 (TRAH MIcro)
    4     dE    -9.479616e-04     3.763343e-03    -2.9003e-02      0.154 (TRAH MIcro)
    4     dE    -9.555948e-04     1.720889e-03    -2.9093e-02      0.155 (TRAH MIcro)
    4     dE    -9.558527e-04     5.196280e-04    -2.9111e-02      0.155 (TRAH MIcro)
    5       -296.188944572107     2.976882e-02                     0.829 (TRAH MAcro)   No
WARNING: 5 diagonal Hessian elements are negative!
WARNING : negative HOMO - LUMO gap : -0.006500
WARNING : negative HOMO - LUMO gap : -0.006500
    5     dE    -1.572157e-04     1.158967e-02    -3.1431e-04      0.019 (TRAH MIcro)
    5     dE    -2.042639e-04     8.726050e-03    -4.0817e-04      0.030 (TRAH MIcro)
    5     dE    -3.222305e-04     1.512472e-02    -6.3643e-04      0.112 (TRAH MIcro)
    5     dE    -3.554548e-04     1.441706e-02    -6.9893e-04      0.131 (TRAH MIcro)
    5     dE    -4.442253e-04     1.064884e-02    -8.6353e-04      0.170 (TRAH MIcro)
    5     dE    -4.552215e-04     9.536731e-03    -8.8300e-04      0.176 (TRAH MIcro)
    5     dE    -4.728498e-04     6.356556e-03    -9.1479e-04      0.184 (TRAH MIcro)
    5     dE    -4.840920e-04     6.009175e-03    -9.3361e-04      0.192 (TRAH MIcro)
    5     dE    -4.863344e-04     6.106229e-03    -9.3764e-04      0.193 (TRAH MIcro)
    5     dE    -4.981044e-04     6.727235e-03    -9.5597e-04      0.205 (TRAH MIcro)
    5     dE    -5.220463e-04     8.431167e-03    -9.8870e-04      0.237 (TRAH MIcro)
    5     dE    -5.690262e-04     9.101953e-03    -1.0409e-03      0.306 (TRAH MIcro)
    5     dE    -5.942994e-04     6.833995e-03    -1.0643e-03      0.342 (TRAH MIcro)
    5     dE    -6.064555e-04     4.893163e-03    -1.0748e-03      0.358 (TRAH MIcro)
    5     dE    -6.112163e-04     4.302478e-03    -1.0787e-03      0.365 (TRAH MIcro)
    5     dE    -6.198786e-04     6.216523e-03    -1.0881e-03      0.373 (TRAH MIcro)
    5     dE    -6.345237e-04     1.100000e-02    -1.1056e-03      0.384 (TRAH MIcro)
    5     dE    -1.621723e-03     1.359428e-01    -2.3967e-03      0.829 (TRAH MIcro)
    5     dE    -5.738511e-03     8.905222e-02    -1.4715e-02      0.829 (TRAH MIcro)
    5     dE    -4.123623e-03     3.253722e-02    -2.2902e-02      0.564 (TRAH MIcro)
    5     dE    -5.158370e-03     1.330339e-02    -2.4489e-02      0.616 (TRAH MIcro)
    5     dE    -5.130945e-03     4.805302e-03    -2.4678e-02      0.612 (TRAH MIcro)
    5     dE    -5.131569e-03     1.455756e-03    -2.4700e-02      0.611 (TRAH MIcro)
 ---------------------------------
          TRAH Step control 
 ---------------------------------
  predicted energy change =    -5.131568613330e-03
  actual energy  change   =     2.699690063565e-02
  energy change ratio     = -5.260945
  old trust radius        = 0.829440
  new trust radius        = 0.555725
  reject step?            = YES
    6       -296.161947671471     2.976882e-02                     0.556 (TRAH MAcro)  Yes
    7       -296.161947671471     4.283859e-01                     0.556 (TRAH MAcro)   No
WARNING: 42 diagonal Hessian elements are negative!
WARNING : negative HOMO - LUMO gap : -0.100996
WARNING : negative HOMO - LUMO gap : -0.100996
    7     dE    -2.851627e-02     9.296627e-02    -5.5856e-02      0.145 (TRAH MIcro)
    7     dE    -2.950741e-02     8.634968e-02    -5.6854e-02      0.195 (TRAH MIcro)
    7     dE    -3.054649e-02     7.816350e-02    -5.7973e-02      0.232 (TRAH MIcro)
    7     dE    -3.207051e-02     1.060181e-01    -6.0929e-02      0.230 (TRAH MIcro)
    7     dE    -4.811328e-02     2.247907e-01    -1.0506e-01      0.519 (TRAH MIcro)
    7     dE    -4.367256e-02     1.416395e-01    -1.3991e-01      0.415 (TRAH MIcro)
    7     dE    -5.919271e-02     1.692631e-01    -1.7122e-01      0.556 (TRAH MIcro)
    7     dE    -4.518627e-02     9.226534e-02    -2.3037e-01      0.369 (TRAH MIcro)
    7     dE    -7.309955e-02     1.253494e-01    -2.6674e-01      0.556 (TRAH MIcro)
    7     dE    -3.185208e-02     2.641014e-02    -4.4381e-01      0.169 (TRAH MIcro)
    7     dE    -3.320756e-02     1.574712e-02    -4.4756e-01      0.183 (TRAH MIcro)
    7     dE    -3.365381e-02     4.726823e-03    -4.4806e-01      0.188 (TRAH MIcro)
    8       -296.190673781618     2.550973e-02                     0.667 (TRAH MAcro)   No
WARNING: 8 diagonal Hessian elements are negative!
WARNING : negative HOMO - LUMO gap : -0.005206
WARNING : negative HOMO - LUMO gap : -0.005206
    8     dE    -1.055236e-04     3.069086e-02    -2.1096e-04      0.021 (TRAH MIcro)
    8     dE    -1.366693e-04     2.905098e-02    -2.7305e-04      0.032 (TRAH MIcro)
    8     dE    -1.625739e-04     2.812842e-02    -3.2460e-04      0.041 (TRAH MIcro)
    8     dE    -7.221954e-04     3.074601e-02    -1.3836e-03      0.210 (TRAH MIcro)
    8     dE    -8.367874e-04     2.449561e-02    -1.5788e-03      0.245 (TRAH MIcro)
    8     dE    -1.003410e-03     1.604900e-02    -1.8590e-03      0.282 (TRAH MIcro)
    8     dE    -1.076237e-03     1.664484e-02    -1.9667e-03      0.307 (TRAH MIcro)
    8     dE    -1.294545e-03     2.540975e-02    -2.2164e-03      0.410 (TRAH MIcro)
    8     dE    -2.386979e-03     3.682131e-02    -5.8478e-03      0.667 (TRAH MIcro)
    8     dE    -2.647464e-03     2.087123e-02    -1.5010e-02      0.488 (TRAH MIcro)
    8     dE    -3.752095e-03     2.235813e-02    -1.7705e-02      0.556 (TRAH MIcro)
    8     dE    -4.759502e-03     1.356492e-02    -1.8809e-02      0.626 (TRAH MIcro)
    8     dE    -5.344652e-03     7.587266e-03    -1.9120e-02      0.667 (TRAH MIcro)
    8     dE    -5.356285e-03     4.882824e-03    -1.9211e-02      0.667 (TRAH MIcro)
    8     dE    -5.361245e-03     2.013310e-03    -1.9245e-02      0.667 (TRAH MIcro)
 ---------------------------------
          TRAH Step control 
 ---------------------------------
  predicted energy change =    -5.361245292268e-03
  actual energy  change   =     4.576132901798e-02
  energy change ratio     = -8.535578
  old trust radius        = 0.666870
  new trust radius        = 0.446803
  reject step?            = YES
    9       -296.144912452600     2.550973e-02                     0.447 (TRAH MAcro)  Yes
   10       -296.144912452600     5.771946e-01                     0.447 (TRAH MAcro)   No
WARNING: 36 diagonal Hessian elements are negative!
WARNING : negative HOMO - LUMO gap : -0.080078
WARNING : negative HOMO - LUMO gap : -0.080078
   10     dE    -4.268564e-02     9.440609e-02    -8.3438e-02      0.152 (TRAH MIcro)
   10     dE    -4.497989e-02     8.189713e-02    -8.5426e-02      0.230 (TRAH MIcro)
   10     dE    -4.594217e-02     6.844852e-02    -8.6745e-02      0.243 (TRAH MIcro)
   10     dE    -4.623071e-02     5.879129e-02    -8.7355e-02      0.242 (TRAH MIcro)
   10     dE    -4.679921e-02     5.738184e-02    -8.7491e-02      0.264 (TRAH MIcro)
   10     dE    -4.937219e-02     3.289565e-02    -8.8695e-02      0.337 (TRAH MIcro)
   10     dE    -4.953743e-02     2.591155e-02    -8.9107e-02      0.334 (TRAH MIcro)
   10     dE    -4.912588e-02     3.179959e-02    -8.9617e-02      0.310 (TRAH MIcro)
   10     dE    -4.924370e-02     5.497227e-02    -9.0872e-02      0.289 (TRAH MIcro)
   10     dE    -5.807311e-02     1.120760e-01    -1.0796e-01      0.447 (TRAH MIcro)
   10     dE    -5.566854e-02     6.494630e-02    -1.9636e-01      0.339 (TRAH MIcro)
   10     dE    -4.753421e-02     2.937415e-02    -3.2036e-01      0.201 (TRAH MIcro)
   10     dE    -4.748616e-02     2.904215e-02    -3.2039e-01      0.201 (TRAH MIcro)
   10     dE    -5.642162e-02     1.631861e-02    -3.2466e-01      0.302 (TRAH MIcro)
   10     dE    -5.753943e-02     5.043136e-03    -3.2499e-01      0.313 (TRAH MIcro)
   11       -296.188627623609     8.613335e-02                     0.536 (TRAH MAcro)   No
WARNING: 8 diagonal Hessian elements are negative!
WARNING : negative HOMO - LUMO gap : -0.008760
WARNING : negative HOMO - LUMO gap : -0.008760
   11     dE    -9.055748e-04     5.374640e-02    -1.8098e-03      0.027 (TRAH MIcro)
   11     dE    -1.139647e-03     5.837083e-02    -2.2743e-03      0.047 (TRAH MIcro)
   11     dE    -1.332989e-03     4.593228e-02    -2.6591e-03      0.051 (TRAH MIcro)
   11     dE    -1.896111e-03     3.640864e-02    -3.7579e-03      0.096 (TRAH MIcro)
   11     dE    -2.668626e-03     3.111313e-02    -5.1382e-03      0.197 (TRAH MIcro)
   11     dE    -2.757876e-03     2.348115e-02    -5.2773e-03      0.213 (TRAH MIcro)
   11     dE    -2.846220e-03     1.389474e-02    -5.4359e-03      0.217 (TRAH MIcro)
   11     dE    -2.884470e-03     8.850819e-03    -5.5052e-03      0.219 (TRAH MIcro)
   11     dE    -2.897064e-03     7.347604e-03    -5.5263e-03      0.220 (TRAH MIcro)
   12       -296.191499968019     3.393986e-02                     0.643 (TRAH MAcro)   No
WARNING: 3 diagonal Hessian elements are negative!
WARNING : negative HOMO - LUMO gap : -0.003282
WARNING : negative HOMO - LUMO gap : -0.003282
   12     dE    -1.754387e-04     1.240619e-02    -3.5082e-04      0.013 (TRAH MIcro)
   12     dE    -1.978769e-04     1.445009e-02    -3.9565e-04      0.016 (TRAH MIcro)
   12     dE    -3.237554e-04     2.141281e-02    -6.4587e-04      0.050 (TRAH MIcro)
   12     dE    -7.035204e-04     2.311677e-02    -1.3640e-03      0.178 (TRAH MIcro)
   12     dE    -7.535370e-04     1.858413e-02    -1.4537e-03      0.192 (TRAH MIcro)
   12     dE    -8.266317e-04     1.240227e-02    -1.5755e-03      0.222 (TRAH MIcro)
   12     dE    -8.654539e-04     7.919682e-03    -1.6461e-03      0.227 (TRAH MIcro)
   12     dE    -8.761074e-04     3.886024e-03    -1.6660e-03      0.227 (TRAH MIcro)
   12     dE    -8.788759e-04     2.668003e-03    -1.6709e-03      0.228 (TRAH MIcro)
   13       -296.192060141069     4.443644e-02                     0.643 (TRAH MAcro)   No
WARNING: 6 diagonal Hessian elements are negative!
WARNING : negative HOMO - LUMO gap : -0.004735
WARNING : negative HOMO - LUMO gap : -0.004735
   13     dE    -2.646898e-04     2.678270e-02    -5.2923e-04      0.017 (TRAH MIcro)
   13     dE    -3.649518e-04     1.066227e-02    -7.2952e-04      0.023 (TRAH MIcro)
   13     dE    -3.832315e-04     8.439065e-03    -7.6596e-04      0.026 (TRAH MIcro)
   13     dE    -3.871381e-04     6.229344e-03    -7.7377e-04      0.026 (TRAH MIcro)
   13     dE    -4.109557e-04     8.055231e-03    -8.2019e-04      0.046 (TRAH MIcro)
   13     dE    -4.259511e-04     6.244940e-03    -8.4860e-04      0.062 (TRAH MIcro)
   13     dE    -4.299343e-04     5.518639e-03    -8.5639e-04      0.064 (TRAH MIcro)
   13     dE    -4.337903e-04     5.477241e-03    -8.6412e-04      0.063 (TRAH MIcro)
   13     dE    -4.472670e-04     8.538797e-03    -8.9041e-04      0.068 (TRAH MIcro)
   13     dE    -4.929171e-04     1.725865e-02    -9.7697e-04      0.095 (TRAH MIcro)
   13     dE    -6.892543e-04     3.590311e-02    -1.2969e-03      0.251 (TRAH MIcro)
   13     dE    -1.673537e-03     5.133754e-02    -3.2236e-03      0.643 (TRAH MIcro)
   13     dE    -2.218368e-03     5.153516e-02    -5.6111e-03      0.643 (TRAH MIcro)
   13     dE    -2.327666e-03     3.235939e-02    -7.6825e-03      0.591 (TRAH MIcro)
   13     dE    -3.361574e-03     3.626932e-02    -1.1450e-02      0.643 (TRAH MIcro)
   13     dE    -2.163157e-03     1.434812e-02    -1.3956e-02      0.442 (TRAH MIcro)
   13     dE    -2.404360e-03     7.649195e-03    -1.4240e-02      0.472 (TRAH MIcro)
   13     dE    -2.440343e-03     5.183576e-03    -1.4283e-02      0.476 (TRAH MIcro)
   13     dE    -2.450811e-03     4.352597e-03    -1.4305e-02      0.477 (TRAH MIcro)
 ---------------------------------
          TRAH Step control 
 ---------------------------------
  predicted energy change =    -2.450810912677e-03
  actual energy  change   =     6.967032236503e-03
  energy change ratio     = -2.842746
  old trust radius        = 0.643396
  new trust radius        = 0.431075
  reject step?            = YES
   14       -296.185093108833     4.443644e-02                     0.431 (TRAH MAcro)  Yes
   15       -296.185093108833     2.290254e-01                     0.431 (TRAH MAcro)   No
WARNING: 25 diagonal Hessian elements are negative!
WARNING : negative HOMO - LUMO gap : -0.046121
WARNING : negative HOMO - LUMO gap : -0.046121
   15     dE    -7.592108e-03     3.777612e-02    -1.5106e-02      0.072 (TRAH MIcro)
   15     dE    -7.767600e-03     2.710321e-02    -1.5443e-02      0.077 (TRAH MIcro)
   15     dE    -7.856220e-03     2.149944e-02    -1.5607e-02      0.082 (TRAH MIcro)
   15     dE    -7.929889e-03     1.622400e-02    -1.5740e-02      0.087 (TRAH MIcro)
   15     dE    -8.000650e-03     1.494359e-02    -1.5851e-02      0.097 (TRAH MIcro)
   15     dE    -8.004175e-03     1.442616e-02    -1.5856e-02      0.098 (TRAH MIcro)
   15     dE    -8.050019e-03     1.090341e-02    -1.5919e-02      0.107 (TRAH MIcro)
   15     dE    -8.155730e-03     1.802504e-02    -1.6042e-02      0.130 (TRAH MIcro)
   15     dE    -9.633871e-03     9.176636e-02    -1.6776e-02      0.385 (TRAH MIcro)
   15     dE    -8.812765e-03     3.844650e-02    -6.2006e-02      0.167 (TRAH MIcro)
   15     dE    -8.817809e-03     2.052422e-02    -1.3291e-01      0.134 (TRAH MIcro)
   15     dE    -9.943238e-03     2.726822e-02    -1.3431e-01      0.182 (TRAH MIcro)
   15     dE    -2.103603e-02     4.555228e-02    -1.4046e-01      0.431 (TRAH MIcro)
   15     dE    -7.774777e-03     1.210295e-02    -3.3410e-01      0.070 (TRAH MIcro)
   15     dE    -7.783185e-03     6.155527e-03    -3.3560e-01      0.069 (TRAH MIcro)
   16       -296.192884383791     2.555367e-02                     0.517 (TRAH MAcro)   No
WARNING: 5 diagonal Hessian elements are negative!
WARNING : negative HOMO - LUMO gap : -0.004376
WARNING : negative HOMO - LUMO gap : -0.004376
   16     dE    -1.236894e-04     1.456550e-02    -2.4735e-04      0.011 (TRAH MIcro)
   16     dE    -1.336440e-04     1.410157e-02    -2.6723e-04      0.014 (TRAH MIcro)
   16     dE    -1.742962e-04     1.953853e-02    -3.4819e-04      0.034 (TRAH MIcro)
   16     dE    -2.499384e-04     2.022280e-02    -4.9713e-04      0.074 (TRAH MIcro)
   16     dE    -4.041184e-04     1.408256e-02    -7.8236e-04      0.182 (TRAH MIcro)
   16     dE    -4.841244e-04     9.141937e-03    -9.2144e-04      0.225 (TRAH MIcro)
   16     dE    -5.114773e-04     6.893182e-03    -9.6182e-04      0.252 (TRAH MIcro)
   16     dE    -5.277647e-04     4.508218e-03    -9.8409e-04      0.269 (TRAH MIcro)
   16     dE    -5.363860e-04     3.892790e-03    -9.9345e-04      0.283 (TRAH MIcro)
   16     dE    -5.512211e-04     4.025570e-03    -1.0060e-03      0.310 (TRAH MIcro)
   16     dE    -5.596917e-04     3.863848e-03    -1.0128e-03      0.324 (TRAH MIcro)
   16     dE    -5.767421e-04     3.993199e-03    -1.0278e-03      0.350 (TRAH MIcro)
   16     dE    -5.836020e-04     4.335318e-03    -1.0368e-03      0.355 (TRAH MIcro)
   16     dE    -5.920493e-04     5.544528e-03    -1.0581e-03      0.345 (TRAH MIcro)
   16     dE    -5.950793e-04     5.653835e-03    -1.0729e-03      0.331 (TRAH MIcro)
   16     dE    -5.986964e-04     5.086141e-03    -1.0899e-03      0.314 (TRAH MIcro)
   16     dE    -6.031672e-04     5.660931e-03    -1.1038e-03      0.305 (TRAH MIcro)
   16     dE    -6.407401e-04     1.278785e-02    -1.1763e-03      0.299 (TRAH MIcro)
   16     dE    -1.315468e-03     4.486633e-02    -3.8929e-03      0.517 (TRAH MIcro)
   16     dE    -1.436173e-03     2.723009e-02    -5.7530e-03      0.493 (TRAH MIcro)
   16     dE    -1.714544e-03     2.088247e-02    -7.1939e-03      0.517 (TRAH MIcro)
   16     dE    -1.789278e-03     1.063304e-02    -7.7917e-03      0.517 (TRAH MIcro)
   16     dE    -1.807994e-03     8.549651e-03    -7.9536e-03      0.517 (TRAH MIcro)
 ---------------------------------
          TRAH Step control 
 ---------------------------------
  predicted energy change =    -1.807993725826e-03
  actual energy  change   =     1.089127151448e-02
  energy change ratio     = -6.023954
  old trust radius        = 0.517290
  new trust radius        = 0.346585
  reject step?            = YES
   17       -296.181993112277     2.555367e-02                     0.347 (TRAH MAcro)  Yes
   18       -296.181993112277     2.699003e-01                     0.347 (TRAH MAcro)   No
WARNING: 16 diagonal Hessian elements are negative!
WARNING : negative HOMO - LUMO gap : -0.050891
WARNING : negative HOMO - LUMO gap : -0.050891
   18     dE    -1.059398e-02     3.796972e-02    -2.1043e-02      0.083 (TRAH MIcro)
   18     dE    -1.079157e-02     3.299451e-02    -2.1409e-02      0.090 (TRAH MIcro)
   18     dE    -1.093809e-02     2.516467e-02    -2.1667e-02      0.098 (TRAH MIcro)
   18     dE    -1.106941e-02     1.950929e-02    -2.1863e-02      0.112 (TRAH MIcro)
   18     dE    -1.116153e-02     1.244662e-02    -2.1990e-02      0.123 (TRAH MIcro)
   18     dE    -1.123855e-02     1.335964e-02    -2.2105e-02      0.130 (TRAH MIcro)
   18     dE    -1.130291e-02     1.631659e-02    -2.2203e-02      0.135 (TRAH MIcro)
   18     dE    -1.148662e-02     2.735055e-02    -2.2435e-02      0.155 (TRAH MIcro)
   18     dE    -1.213609e-02     4.537978e-02    -2.2996e-02      0.236 (TRAH MIcro)
   18     dE    -1.363333e-02     4.946713e-02    -3.1794e-02      0.347 (TRAH MIcro)
   18     dE    -1.487109e-02     5.459420e-02    -5.6378e-02      0.347 (TRAH MIcro)
   18     dE    -1.354856e-02     3.078489e-02    -8.6827e-02      0.236 (TRAH MIcro)
   18     dE    -1.127223e-02     1.231136e-02    -1.7940e-01      0.104 (TRAH MIcro)
   18     dE    -1.179067e-02     6.607934e-03    -1.8063e-01      0.125 (TRAH MIcro)
   19       -296.192882805409     2.106271e-02                     0.416 (TRAH MAcro)   No
WARNING : small    HOMO - LUMO gap : 0.000587
WARNING : small    HOMO - LUMO gap : 0.000587
   19     dE    -5.943488e-05     1.401912e-02    -1.1886e-04      0.007 (TRAH MIcro)
   19     dE    -1.046148e-04     2.664786e-02    -2.0914e-04      0.021 (TRAH MIcro)
   19     dE    -2.262703e-04     2.706686e-02    -4.5058e-04      0.066 (TRAH MIcro)
   19     dE    -5.521174e-04     2.221460e-02    -1.0702e-03      0.178 (TRAH MIcro)
   19     dE    -6.684871e-04     1.316786e-02    -1.2768e-03      0.217 (TRAH MIcro)
   19     dE    -6.803426e-04     1.214862e-02    -1.2973e-03      0.221 (TRAH MIcro)
   19     dE    -7.088950e-04     7.334351e-03    -1.3466e-03      0.230 (TRAH MIcro)
   19     dE    -7.183791e-04     4.082877e-03    -1.3616e-03      0.235 (TRAH MIcro)
   19     dE    -7.221374e-04     2.399367e-03    -1.3671e-03      0.238 (TRAH MIcro)
   19     dE    -7.230828e-04     1.222684e-03    -1.3687e-03      0.238 (TRAH MIcro)
   20       -296.193519162222     3.458583e-02                     0.499 (TRAH MAcro)   No
WARNING: 2 diagonal Hessian elements are negative!
WARNING : negative HOMO - LUMO gap : -0.003167
WARNING : negative HOMO - LUMO gap : -0.003167
   20     dE    -1.666287e-04     8.612367e-03    -3.3321e-04      0.012 (TRAH MIcro)
   20     dE    -1.716175e-04     6.073781e-03    -3.4318e-04      0.013 (TRAH MIcro)
   20     dE    -1.770778e-04     4.088806e-03    -3.5409e-04      0.014 (TRAH MIcro)
   20     dE    -2.013100e-04     5.424513e-03    -4.0157e-04      0.051 (TRAH MIcro)
   20     dE    -2.108957e-04     4.788606e-03    -4.1991e-04      0.067 (TRAH MIcro)
   20     dE    -2.140264e-04     3.484891e-03    -4.2581e-04      0.073 (TRAH MIcro)
   20     dE    -2.166173e-04     2.748836e-03    -4.3063e-04      0.078 (TRAH MIcro)
   21       -296.193727038459     5.858930e-03                     0.599 (TRAH MAcro)   No
WARNING: 2 diagonal Hessian elements are negative!
WARNING : negative HOMO - LUMO gap : -0.000496
WARNING : negative HOMO - LUMO gap : -0.000496
   21     dE    -4.942373e-06     3.547353e-03    -9.8846e-06      0.003 (TRAH MIcro)
   21     dE    -6.361162e-06     3.755377e-03    -1.2722e-05      0.006 (TRAH MIcro)
   21     dE    -8.781523e-06     4.003346e-03    -1.7561e-05      0.011 (TRAH MIcro)
   21     dE    -1.992299e-05     6.015529e-03    -3.9789e-05      0.038 (TRAH MIcro)
   21     dE    -2.941010e-05     5.541944e-03    -5.8590e-05      0.063 (TRAH MIcro)
   21     dE    -4.026516e-05     4.155820e-03    -7.9946e-05      0.086 (TRAH MIcro)
   21     dE    -4.426192e-05     2.328800e-03    -8.7757e-05      0.094 (TRAH MIcro)
   21     dE    -4.560034e-05     1.543777e-03    -9.0358e-05      0.097 (TRAH MIcro)
   21     dE    -4.660184e-05     1.757811e-03    -9.2292e-05      0.099 (TRAH MIcro)
   21     dE    -4.834344e-05     2.066531e-03    -9.5568e-05      0.108 (TRAH MIcro)
   21     dE    -5.018562e-05     2.456811e-03    -9.8915e-05      0.121 (TRAH MIcro)
   21     dE    -5.247552e-05     1.806797e-03    -1.0282e-04      0.144 (TRAH MIcro)
   21     dE    -5.324673e-05     1.029892e-03    -1.0408e-04      0.152 (TRAH MIcro)
   21     dE    -5.344773e-05     5.799403e-04    -1.0441e-04      0.154 (TRAH MIcro)
 ---------------------------------
          TRAH Step control 
 ---------------------------------
  predicted energy change =    -5.344773354319e-05
  actual energy  change   =     9.499978318672e-06
  energy change ratio     = -0.177743
  old trust radius        = 0.598898
  new trust radius        = 0.401262
  reject step?            = YES
   22       -296.193717538480     5.858930e-03                     0.401 (TRAH MAcro)  Yes
   23       -296.193717538481     2.216323e-02                     0.401 (TRAH MAcro)   No
WARNING: 1 diagonal Hessian elements are negative!
WARNING : negative HOMO - LUMO gap : -0.000153
WARNING : negative HOMO - LUMO gap : -0.000153
   23     dE    -6.684501e-05     3.696586e-03    -1.3368e-04      0.007 (TRAH MIcro)
   23     dE    -6.800184e-05     2.418217e-03    -1.3600e-04      0.008 (TRAH MIcro)
   23     dE    -7.278275e-05     4.810283e-03    -1.4546e-04      0.027 (TRAH MIcro)
   23     dE    -7.887925e-05     3.668434e-03    -1.5722e-04      0.058 (TRAH MIcro)
   23     dE    -8.348953e-05     2.536768e-03    -1.6617e-04      0.070 (TRAH MIcro)
   23     dE    -8.397999e-05     2.573618e-03    -1.6708e-04      0.073 (TRAH MIcro)
   23     dE    -8.530560e-05     1.884629e-03    -1.6955e-04      0.079 (TRAH MIcro)
   24       -296.193786816905     8.679193e-03                     0.482 (TRAH MAcro)   No
WARNING: 3 diagonal Hessian elements are negative!
WARNING : negative HOMO - LUMO gap : -0.001058
WARNING : negative HOMO - LUMO gap : -0.001058
   24     dE    -1.036801e-05     3.531490e-03    -2.0736e-05      0.004 (TRAH MIcro)
   24     dE    -1.174881e-05     2.671229e-03    -2.3497e-05      0.005 (TRAH MIcro)
   24     dE    -1.249348e-05     2.199311e-03    -2.4986e-05      0.006 (TRAH MIcro)
   24     dE    -1.586413e-05     2.660589e-03    -3.1719e-05      0.017 (TRAH MIcro)
   24     dE    -1.658381e-05     2.374504e-03    -3.3154e-05      0.020 (TRAH MIcro)
   24     dE    -1.886908e-05     1.659968e-03    -3.7699e-05      0.032 (TRAH MIcro)
   24     dE    -1.955396e-05     1.235002e-03    -3.9057e-05      0.036 (TRAH MIcro)
   24     dE    -2.004430e-05     1.084651e-03    -4.0026e-05      0.040 (TRAH MIcro)
   24     dE    -2.068514e-05     1.187924e-03    -4.1285e-05      0.045 (TRAH MIcro)
   24     dE    -2.113370e-05     1.139722e-03    -4.2161e-05      0.050 (TRAH MIcro)
   24     dE    -2.148551e-05     8.443780e-04    -4.2839e-05      0.056 (TRAH MIcro)
   25       -296.193808121833     3.089307e-03                     0.578 (TRAH MAcro)   No
WARNING : small    HOMO - LUMO gap : 0.000031
WARNING : small    HOMO - LUMO gap : 0.000031
   25     dE    -1.182166e-06     1.102726e-03    -2.3643e-06      0.001 (TRAH MIcro)
   25     dE    -1.720228e-06     1.797589e-03    -3.4404e-06      0.005 (TRAH MIcro)
   25     dE    -2.058110e-06     1.862583e-03    -4.1160e-06      0.007 (TRAH MIcro)
   25     dE    -4.097454e-06     2.727491e-03    -8.1912e-06      0.021 (TRAH MIcro)
   25     dE    -5.477213e-06     2.523563e-03    -1.0944e-05      0.030 (TRAH MIcro)
   25     dE    -7.831190e-06     1.809854e-03    -1.5633e-05      0.043 (TRAH MIcro)
   25     dE    -8.562824e-06     1.110220e-03    -1.7088e-05      0.047 (TRAH MIcro)
   25     dE    -8.837662e-06     8.516182e-04    -1.7630e-05      0.051 (TRAH MIcro)
   25     dE    -8.950293e-06     6.230944e-04    -1.7853e-05      0.052 (TRAH MIcro)
   25     dE    -9.021099e-06     3.286186e-04    -1.7993e-05      0.052 (TRAH MIcro)
   25     dE    -9.036033e-06     1.601442e-04    -1.8022e-05      0.052 (TRAH MIcro)
   26       -296.193817766991     2.281253e-03                     0.693 (TRAH MAcro)   No
WARNING: 1 diagonal Hessian elements are negative!
WARNING : negative HOMO - LUMO gap : -0.000073
WARNING : negative HOMO - LUMO gap : -0.000073
   26     dE    -7.901735e-07     6.801524e-04    -1.5803e-06      0.002 (TRAH MIcro)
   26     dE    -8.760347e-07     4.945371e-04    -1.7521e-06      0.002 (TRAH MIcro)
   26     dE    -9.249299e-07     4.432344e-04    -1.8499e-06      0.002 (TRAH MIcro)
   26     dE    -1.030368e-06     6.570564e-04    -2.0607e-06      0.005 (TRAH MIcro)
   26     dE    -1.228167e-06     6.429508e-04    -2.4561e-06      0.010 (TRAH MIcro)
[...]
      dxz     :     0.008063
      dyz     :     0.008646
      dx2y2   :     0.012438
      dxy     :     0.012367

  7 B s       :     3.363787  s :     3.363787
      pz      :     0.505118  p :     1.860731
      px      :     0.763616
      py      :     0.591997
      dz2     :     0.004731  d :     0.044718
      dxz     :     0.004983
      dyz     :     0.008973
      dx2y2   :     0.013616
      dxy     :     0.012415

  8 B s       :     3.364357  s :     3.364357
      pz      :     0.425206  p :     1.860360
      px      :     0.757595
      py      :     0.677559
      dz2     :     0.003919  d :     0.044720
      dxz     :     0.005263
      dyz     :     0.006316
      dx2y2   :     0.014331
      dxy     :     0.014892

  9 B s       :     2.816333  s :     2.816333
      pz      :     0.768244  p :     1.756846
      px      :     0.569681
      py      :     0.418920
      dz2     :     0.007701  d :     0.072243
      dxz     :     0.010369
      dyz     :     0.011457
      dx2y2   :     0.022811
      dxy     :     0.019905

 10 B s       :     3.193879  s :     3.193879
      pz      :     0.401351  p :     1.573967
      px      :     0.597405
      py      :     0.575210
      dz2     :     0.003960  d :     0.047721
      dxz     :     0.005924
      dyz     :     0.006171
      dx2y2   :     0.015849
      dxy     :     0.015817

 11 B s       :     2.819117  s :     2.819117
      pz      :     0.751536  p :     1.754896
      px      :     0.433763
      py      :     0.569597
      dz2     :     0.008184  d :     0.072236
      dxz     :     0.011799
      dyz     :     0.010157
      dx2y2   :     0.019465
      dxy     :     0.022631



                     *******************************
                     * LOEWDIN POPULATION ANALYSIS *
                     *******************************

----------------------
LOEWDIN ATOMIC CHARGES
----------------------
   0 B :    0.059166
   1 B :   -0.057892
   2 B :   -0.000871
   3 B :   -0.000348
   4 B :   -0.000618
   5 B :   -0.000363
   6 B :    0.059457
   7 B :   -0.000853
   8 B :   -0.000458
   9 B :   -0.058225
  10 B :    0.059268
  11 B :   -0.058262

-------------------------------
LOEWDIN REDUCED ORBITAL CHARGES
-------------------------------
  0 B s       :     2.735562  s :     2.735562
      pz      :     0.577524  p :     2.075524
      px      :     0.661687
      py      :     0.836313
      dz2     :     0.014703  d :     0.129747
      dxz     :     0.020896
      dyz     :     0.023422
      dx2y2   :     0.037979
      dxy     :     0.032747

  1 B s       :     2.558778  s :     2.558778
      pz      :     0.721160  p :     2.277392
      px      :     0.777945
      py      :     0.778287
      dz2     :     0.029643  d :     0.221722
      dxz     :     0.038722
      dyz     :     0.040827
      dx2y2   :     0.056610
      dxy     :     0.055920

  2 B s       :     2.787669  s :     2.787669
      pz      :     0.611423  p :     2.104994
      px      :     0.548356
      py      :     0.945214
      dz2     :     0.014761  d :     0.108208
      dxz     :     0.023295
      dyz     :     0.021020
      dx2y2   :     0.022816
      dxy     :     0.026317

  3 B s       :     2.788100  s :     2.788100
      pz      :     0.607545  p :     2.104154
      px      :     0.709180
      py      :     0.787430
      dz2     :     0.015849  d :     0.108094
      dxz     :     0.019108
      dyz     :     0.025659
      dx2y2   :     0.024991
      dxy     :     0.022487

  4 B s       :     2.787728  s :     2.787728
      pz      :     0.536850  p :     2.104718
      px      :     0.855793
      py      :     0.712075
      dz2     :     0.011336  d :     0.108172
      dxz     :     0.010292
      dyz     :     0.021030
      dx2y2   :     0.031178
      dxy     :     0.034337

  5 B s       :     2.787985  s :     2.787985
      pz      :     0.477876  p :     2.104222
      px      :     0.721092
      py      :     0.905254
      dz2     :     0.011537  d :     0.108156
      dxz     :     0.017816
      dyz     :     0.007829
      dx2y2   :     0.036590
      dxy     :     0.034383

  6 B s       :     2.735925  s :     2.735925
      pz      :     0.580636  p :     2.075046
      px      :     0.867625
      py      :     0.626784
      dz2     :     0.014982  d :     0.129572
      dxz     :     0.024120
      dyz     :     0.021764
      dx2y2   :     0.031792
      dxy     :     0.036914

  7 B s       :     2.787817  s :     2.787817
      pz      :     0.554772  p :     2.104901
      px      :     0.878754
      py      :     0.671375
      dz2     :     0.011796  d :     0.108134
      dxz     :     0.012432
      dyz     :     0.020785
      dx2y2   :     0.033100
      dxy     :     0.030022

  8 B s       :     2.788020  s :     2.788020
      pz      :     0.457872  p :     2.104299
      px      :     0.857925
      py      :     0.788502
      dz2     :     0.011872  d :     0.108138
      dxz     :     0.012514
      dyz     :     0.011799
      dx2y2   :     0.035135
      dxy     :     0.036818

  9 B s       :     2.558647  s :     2.558647
      pz      :     0.665361  p :     2.277596
      px      :     0.765437
      py      :     0.846798
      dz2     :     0.021973  d :     0.221983
      dxz     :     0.027511
      dyz     :     0.031312
      dx2y2   :     0.077371
      dxy     :     0.063815

 10 B s       :     2.735659  s :     2.735659
      pz      :     0.430955  p :     2.075405
      px      :     0.728162
      py      :     0.916288
      dz2     :     0.012423  d :     0.129668
      dxz     :     0.010510
      dyz     :     0.014463
      dx2y2   :     0.046014
      dxy     :     0.046259

 11 B s       :     2.558697  s :     2.558697
      pz      :     0.668125  p :     2.277656
      px      :     0.817563
      py      :     0.791968
      dz2     :     0.022883  d :     0.221910
      dxz     :     0.030163
      dyz     :     0.030201
      dx2y2   :     0.062018
      dxy     :     0.076644



                      *****************************
                      * MAYER POPULATION ANALYSIS *
                      *****************************

  NA   - Mulliken gross atomic population
  ZA   - Total nuclear charge
  QA   - Mulliken gross atomic charge
  VA   - Mayer's total valence
  BVA  - Mayer's bonded valence
  FA   - Mayer's free valence

  ATOM       NA         ZA         QA         VA         BVA        FA
  0 B      4.8143     5.0000     0.1857     3.3165     3.3165     0.0000
  1 B      4.6475     5.0000     0.3525     2.8223     2.8223     0.0000
  2 B      5.2701     5.0000    -0.2701     3.2796     3.2796     0.0000
  3 B      5.2695     5.0000    -0.2695     3.2810     3.2810    -0.0000
  4 B      5.2695     5.0000    -0.2695     3.2808     3.2808     0.0000
  5 B      5.2697     5.0000    -0.2697     3.2808     3.2808    -0.0000
  6 B      4.8133     5.0000     0.1867     3.3144     3.3144    -0.0000
  7 B      5.2692     5.0000    -0.2692     3.2791     3.2791    -0.0000
  8 B      5.2694     5.0000    -0.2694     3.2812     3.2812     0.0000
  9 B      4.6454     5.0000     0.3546     2.8206     2.8206    -0.0000
 10 B      4.8156     5.0000     0.1844     3.3166     3.3166     0.0000
 11 B      4.6462     5.0000     0.3538     2.8185     2.8185     0.0000

  Mayer bond orders larger than 0.100000
B(  0-B ,  1-B ) :   0.4413 B(  0-B ,  2-B ) :   1.0811 B(  0-B ,  4-B ) :   1.0804 
B(  0-B ,  9-B ) :   0.4379 B(  1-B ,  2-B ) :   0.5070 B(  1-B ,  3-B ) :   0.5089 
B(  1-B ,  6-B ) :   0.4388 B(  1-B ,  9-B ) :   0.4795 B(  1-B , 11-B ) :   0.4780 
B(  2-B ,  3-B ) :   1.4825 B(  3-B ,  6-B ) :   1.0799 B(  4-B ,  8-B ) :   1.4829 
B(  4-B ,  9-B ) :   0.5083 B(  5-B ,  7-B ) :   1.4833 B(  5-B , 10-B ) :   1.0810 
B(  5-B , 11-B ) :   0.5071 B(  6-B ,  7-B ) :   1.0802 B(  6-B , 11-B ) :   0.4398 
B(  7-B , 11-B ) :   0.5069 B(  8-B ,  9-B ) :   0.5074 B(  8-B , 10-B ) :   1.0814 
B(  9-B , 10-B ) :   0.4400 B(  9-B , 11-B ) :   0.4786 B( 10-B , 11-B ) :   0.4391 


-------
TIMINGS
-------

Total SCF time: 0 days 0 hours 0 min 3 sec 

Total time                  ....       3.691 sec
Sum of individual times     ....       3.368 sec  ( 91.3%)

SCF preparation             ....       0.558 sec  ( 15.1%)
Fock matrix formation       ....       2.330 sec  ( 63.1%)
  Startup                   ....       0.036 sec  (  1.5% of F)
  Split-RI-J                ....       0.805 sec  ( 34.6% of F)
  XC integration            ....       1.635 sec  ( 70.2% of F)
    XC Preparation          ....       0.000 sec  (  0.0% of XC)
    Basis function eval.    ....       0.393 sec  ( 24.0% of XC)
    Density eval.           ....       0.271 sec  ( 16.5% of XC)
    XC-Functional eval.     ....       0.055 sec  (  3.4% of XC)
    XC-Potential eval.      ....       0.315 sec  ( 19.2% of XC)
Diagonalization             ....       0.000 sec  (  0.0%)
Density matrix formation    ....       0.032 sec  (  0.9%)
Total Energy calculation    ....       0.018 sec  (  0.5%)
Population analysis         ....       0.260 sec  (  7.0%)
Orbital Transformation      ....       0.012 sec  (  0.3%)
Orbital Orthonormalization  ....       0.000 sec  (  0.0%)
DIIS solution               ....       0.017 sec  (  0.5%)
SOSCF solution              ....       0.141 sec  (  3.8%)
Finished LeanSCF after   4.1 sec

Maximum memory used throughout the entire LEANSCF-calculation: 16.4 MB


-------------------------------------------------------------------------------
                          DFT DISPERSION CORRECTION                            
                                                                               
                              DFTD3 V3.1  Rev 1                                
                          USING Becke-Johnson damping                          
-------------------------------------------------------------------------------
The BP86 functional is recognized
Active option DFTDOPT                   ...         4   

molecular C6(AA) [au] = 4351.674368 


            DFT-D V3
 parameters
 s6 scaling factor         :     1.0000 
 a1 scaling factor         :     0.3946 
 s8 scaling factor         :     3.2822 
 a2 scaling factor         :     4.8516 
 ad hoc parameters k1-k3   :    16.0000     1.3333    -4.0000 

 Edisp/kcal,au: -20.740017703850  -0.033051318504 
 E6   /kcal   :  -5.977746173 
 E8   /kcal   : -14.762271531 
 % E8         :  71.177719044 

-------------------------   ----------------
Dispersion correction           -0.033051319
-------------------------   ----------------


-------------------------   --------------------
FINAL SINGLE POINT ENERGY      -297.750634211560
-------------------------   --------------------

                                *** OPTIMIZATION RUN DONE ***



           ************************************************************
           *        Program running with 8 parallel MPI-processes     *
           *              working on a common directory               *
           ************************************************************

------------------------------------------------------------------------------
                              ORCA PROPERTY CALCULATIONS
------------------------------------------------------------------------------

GBWName                                 ... trunc_tetrahedron_nn2.00.gbw
Number of atoms                         ...     12
Number of basis functions               ...    168
Max core memory                         ...   2500 MB

Electric properties:
Dipole moment                           ... YES
Quadrupole moment                       ...  NO
Static polarizability (Dipole/Dipole)   ...  NO
Static polarizability (Dipole/Quad.)    ...  NO
Static polarizability (Quad./Quad.)     ...  NO
Static polarizability (Velocity)        ...  NO
Static hyperpolarizability              ...  NO

Atomic electric properties:
Dipole moment                           ...  NO
Quadrupole moment                       ...  NO
Static polarizability                   ...  NO

Choice of electric origin               ... Center of mass
Position of electric origin             ...    -0.000000    -0.000000    -0.000000

General magnetic properties:
Magnetizability                         ...  NO

EPR properties:
g-Tensor (aka g-matrix)                 ...  NO
Zero-Field splitting spin-orbit         ...  NO
Zero-field splitting spin-spin          ...  NO
Hyperfine couplings                     ...  NO (   0 nuclei)
Quadrupole couplings                    ...  NO (   0 nuclei)
Contact density                         ...  NO (   0 nuclei)

NMR properties:
Chemical shifts                         ...  NO (   0 nuclei)
Spin-rotation constants                 ...  NO (   0 nuclei)
Spin-spin couplings                     ...  NO (   0 nuclei,    0 pairs)

Choice of magnetic origin               ... GIAO
Position of magnetic origin             ...     0.000000     0.000000     0.000000

Properties with geometric perturbations:
SCF Hessian                             ...  NO
IR spectrum                             ...  NO
VCD spectrum                            ...  NO
X-ray spectroscopy properties:
SCF XES/XAS/RIXS spectra                ...  NO

SCF SOC stabilization energy            ...  NO
Diagonal Born-Oppenheimer correction    ...  NO

-------------
DIPOLE MOMENT
-------------

Method             : SCF
Type of density    : Electron Density
Multiplicity       :   1
Irrep              :   0
Energy             :  -297.7175828930558623 Eh
Basis              : AO
                                X                 Y                 Z
Electronic contribution:     -0.308664281       0.153980237      -0.697527976
Nuclear contribution   :     -0.000000000      -0.000000000      -0.000000000
                        -----------------------------------------
Total Dipole Moment    :     -0.308664281       0.153980237      -0.697527976
                        -----------------------------------------
Magnitude (a.u.)       :      0.778157330
Magnitude (Debye)      :      1.977918744



--------------------
Rotational spectrum 
--------------------
 
Rotational constants in cm-1:             0.058840             0.058792             0.030104 
Rotational constants in MHz :          1763.987327          1762.533666           902.499687 

Dipole components along the rotational axes: 
x,y,z [a.u.] :    -0.000071     0.001531    -0.778156 
x,y,z [Debye]:    -0.000180     0.003891    -1.977915 

 

Dipole moment calculation done in   0.1 sec 

Maximum memory used throughout the entire PROP-calculation: 11.9 MB

--------------------------------
SUGGESTED CITATIONS FOR THIS RUN
--------------------------------

Below you find a list of papers that are relevant to this ORCA run
We neither can nor want to force you to cite these papers, but we appreciate if you do
You receive ORCA, which is the product of decades of hard work by many enthusiastic individuals, for free
The only thing we kindly ask in return is that you cite our papers,
We deeply appreciate it, if you show your appreciation for ORCA by not just citing the generic ORCA reference.

Please note that relegating all ORCA citations to the supporting information does *not* help us.
SI sections are not indexed - citations you put there will not count into any citation statistics
But we need these citations in order to attract the funding resources that allow us to do what we are doing

Therefore, if you are a happy ORCA user, please consider citing a few of the papers listed below in the main body of your paper

In addition to the list printed below, the program has created the file trunc_tetrahedron_nn2.00.bibtex that contains the list in bibtex format
You can import this file easily into all common literature databanks and citation aid programs

It goes without saying that in many instances, there are alternative algorithms to achieve similar
results as the ones you have gotten from ORCA. It is, of course, also the case that in some instances
ORCA just re-implements algorithms worked out by others. We are fully aware of that and we are also
fully appreciative of our colleagues work. Hence this citation list should not be read as indicating
that the listed papers, which are focused on our own work, are the only ones worth citing. It simply
meant to make it easier for users to cite ORCA specific papers. It is not a substitute for doing your
own literature research and citing the relevant literature in a scientifically appropriate manner.

List of essential papers. We consider these as the minimum necessary citations

  1. Neese, F.
     Software update: the ORCA program system, version 6.0
     WIRES Comput. Molec. Sci. 2025 15(1), e70019
     doi.org/10.1002/wcms.70019

List of papers to cite with high priority. The work reported in these papers was absolutely
necessary for this run to complete.
Our perspective: the developers of density functionals and basis sets usually get cited in chemistry papers
Good! But without the algorithms to do something with them, the functionals or basis sets would not do anything.
Hence, in our opinion, the algorithm design and method developments papers are equally worthy of getting cited

  1. Neese, F.
     An improvement of the resolution of the identity approximation for the formation of the Coulomb matrix
     J. Comp. Chem. 2003 24(14), 1740-1747
     doi.org/10.1002/jcc.10318
  2. Grimme, S.; Antony, J.; Ehrlich, S.; Krieg, H.
     A consistent and accurate ab initio parametrization of density functional dispersion correction (DFT-D) for the 94 elements H-Pu
     J. Chem. Phys. 2010 132 , 154104
     doi.org/10.1063/1.3382344
  3. Grimme, S.; Ehrlich, S.; Goerigk, L.
     Effect of the damping function in dispersion corrected density functional theory
     J. Comput. Chem. 2011 32(7), 1456-1465
     doi.org/10.1002/jcc.21759
  4. Helmich-Paris, B.
     A trust-region augmented Hessian implementation for restricted and unrestricted Hartree–Fock and Kohn–Sham methods
     J. Chem. Phys. 2021 154 , 164104
     doi.org/10.1063/5.0040798
  5. Neese, F.
     The SHARK Integral Generation and Digestion System
     J. Comp. Chem. 2022 44(3), 381
     doi.org/10.1002/jcc.26942

List of suggested additional citations. These are papers that are important in the 'surrounding' of 
of this run, or papers that preceded the highly important papers. If you like your results we are grateful for a citation.

  1. Neese, F.
     The ORCA program system
     WIRES Comput. Molec. Sci. 2012 2(1), 73-78
     doi.org/10.1002/wcms.81
  2. Neese, F.
     Software update: the ORCA program system, version 4.0
     WIRES Comput. Molec. Sci. 2018 8(1), 1-6
     doi.org/10.1002/wcms.1327
  3. Neese, F.; Wennmohs, F.; Becker, U.; Riplinger, C.
     The ORCA quantum chemistry program package
     J. Chem. Phys. 2020 152(22), 224108
     doi.org/10.1063/5.0004608
  4. Neese, F.
     Software update: The ORCA program system—Version 5.0
     WIRES Comput. Molec. Sci. 2022 12(1), e1606
     doi.org/10.1002/wcms.1606

List of optional additional citations

  1. Neese, F.
     Approximate second-order SCF convergence for spin unrestricted wavefunctions
     Chem. Phys. Lett. 2000 325(1-3), 93-98
     doi.org/10.1016/s0009-2614(00)00662-x

Timings for individual modules:

Sum of individual times          ...     1531.641 sec (=  25.527 min)
Startup calculation              ...      167.733 sec (=   2.796 min)  11.0 %
SCF iterations                   ...     1140.170 sec (=  19.003 min)  74.4 %
Property calculations            ...        0.710 sec (=   0.012 min)   0.0 %
SCF Gradient evaluation          ...      222.469 sec (=   3.708 min)  14.5 %
Geometry relaxation              ...        0.560 sec (=   0.009 min)   0.0 %
                             ****ORCA TERMINATED NORMALLY****
TOTAL RUN TIME: 0 days 0 hours 26 minutes 54 seconds 839 msec
