
                                 *****************
                                 * O   R   C   A *
                                 *****************

                                            #,                                       
                                            ###                                      
                                            ####                                     
                                            #####                                    
                                            ######                                   
                                           ########,                                 
                                     ,,################,,,,,                         
                               ,,#################################,,                 
                          ,,##########################################,,             
                       ,#########################################, ''#####,          
                    ,#############################################,,   '####,        
                  ,##################################################,,,,####,       
                ,###########''''           ''''###############################       
              ,#####''   ,,,,##########,,,,          '''####'''          '####       
            ,##' ,,,,###########################,,,                        '##       
           ' ,,###''''                  '''############,,,                           
         ,,##''                                '''############,,,,        ,,,,,,###''
      ,#''                                            '''#######################'''  
     '                                                          ''''####''''         
             ,#######,   #######,   ,#######,      ##                                
            ,#'     '#,  ##    ##  ,#'     '#,    #''#        ,####,    ,#,          
            ##       ##  ##   ,#'  ##            #'  '#       #'       ,# #          
            ##       ##  #######   ##           ,######,      #####,      #          
            '#,     ,#'  ##    ##  '#,     ,#' ,#      #,     #,   #      #          
             '#######'   ##     ##  '#######'  #'      '#     '####' #    #          



                #########################################################
                #                        -***-                          #
                #          Department of theory and spectroscopy        #
                #                                                       #
                #                      Frank Neese                      #
                #                                                       #
                #     Directorship, Architecture, Infrastructure        #
                #                    SHARK, DRIVERS                     #
                #        Core code/Algorithms in most modules           #
                #                                                       #
                #        Max Planck Institute fuer Kohlenforschung      #
                #                Kaiser Wilhelm Platz 1                 #
                #                 D-45470 Muelheim/Ruhr                 #
                #                      Germany                          #
                #                                                       #
                #                  All rights reserved                  #
                #                        -***-                          #
                #########################################################


                         Program Version 6.1.1  -  RELEASE   -
                                (GIT: $487d211c$)
                          ($2025-11-21 10:33:24 +0100$)
                                                                         
                                  - NO-DMRG VERSION -                    
                                                                         


 With contributions from (in alphabetic order):
[Max-Planck-Institut fuer Kohlenforschung]                               
  Daniel Aravena         : Magnetic Suceptibility                        
  Michael Atanasov       : Ab Initio Ligand Field Theory (pilot matlab implementation)
  Alexander A. Auer      : GIAO ZORA, VPT2 properties, NMR spectrum      
  Ute Becker             : All parallelization in ORCA, NUMFREQ, NUMCALC 
  Giovanni Bistoni       : ED, misc. LED, open-shell LED, HFLD           
  Dmytro Bykov           : pre 5.0 version of the SCF Hessian            
  Marcos Casanova-Páez   : Triplet and SCS-CIS(D). UHF-(DLPNO)-IP/EA/STEOM-CCSD. UHF-CVS-IP/STEOM-CCSD   
  Vijay G. Chilkuri      : MRCI spin determinant printing, contributions to CSF-ICE 
  Pauline Colinet        : FMM embedding                                 
  Dipayan Datta          : RHF DLPNO-CCSD density                        
  Achintya Kumar Dutta   : EOM-CC, STEOM-CC                              
  Nicolas Foglia         : Exact transition moments, OPA infrastructure, MCD improvements    
  Dmitry Ganyushin       : Spin-Orbit,Spin-Spin,Magnetic field MRCI      
  Miquel Garcia-Rates    : C-PCM and meta-GGA Hessian, CCSD/C-PCM, Gaussian charge scheme 
  Tiago L. C. Gouveia    : GS-ROHF, GS-ROCIS                             
  Yang Guo               : DLPNO-NEVPT2, F12-NEVPT2, CIM, IAO-localization        
  Andreas Hansen         : Spin unrestricted coupled pair/coupled cluster methods 
  Ingolf Harden          : AUTO-CI MPn and infrastructure                
  Benjamin Helmich-Paris : MC-RPA, TRAH-(SCF,CASSCF), AVAS, COSX integrals, SCF dyn. polar., MC-PDFT, srDFT 
  Lee Huntington         : MR-EOM, pCC                                   
  Robert Izsak           : Overlap fitted RIJCOSX, COSX-SCS-MP3, EOM     
  Riya Kayal             : Wick's Theorem for AUTO-CI, AUTO-CI UHF-CCSDT 
  Emily Kempfer          : AUTO-CI RHF CISDT and CCSDT, approximate NEVPT4
  Christian Kollmar      : KDIIS, OOCD, Brueckner-CCSD(T), CCSD density, CASPT2, CASPT2-K, improved NEVPT2 
  Axel Koslowski         : Symmetry handling                             
  Simone Kossmann        : meta-GGA functionals, TD-DFT gradient, OOMP2, (MP2 Hessian; deprecated post 5.0) 
  Lucas Lang             : DCDCAS, Hyperfine gauge corrections, ICE-SOC+SSC
  Marvin Lechner         : AUTO-CI (C++ implementation), FIC-MRCC        
  Spencer Leger          : CASSCF response                               
  Dagmar Lenk            : GEPOL surface, SMD, ORCA-2-JSON               
  Dimitrios Liakos       : Extrapolation schemes; Compound Job, Property file
  Dimitrios Manganas     : Further ROCIS development; embedding schemes. LFT, Crystal Embedding 
  Dimitrios Pantazis     : SARC Basis sets                               
  Anastasios Papadopoulos: AUTO-CI, single reference methods and gradients 
  Taras Petrenko         : pre 6.0 DFT Hessian and TD-DFT gradient,  ECA, NRVS 
  Petra Pikulova         : Analytic Raman intensities                    
  Peter Pinski           : DLPNO-MP2, DLPNO-MP2 Gradient                 
  Shashank Vittal Rao    : ES-AILFT, MagRelax                            
  Christoph Reimann      : Effective Core Potentials                     
  Marius Retegan         : Local ZFS, SOC                                
  Christoph Riplinger    : Optimizer, TS searches, QM/MM, DLPNO-CCSD(T), (RO)-DLPNO pert. Triples 
  Michael Roemelt        : Original ROCIS implementation, recursive CI coupling coefficients
  Masaaki Saitow         : Open-shell DLPNO-CCSD energy and density      
  Barbara Sandhoefer     : DKH picture change effects                    
  Yorick L. A. Schmerwitz: GMF and freeze-and-release deltaSCF, NEB S-IDPP initial path                    
  Kantharuban Sivalingam : CASSCF convergence/infrastructure, NEVPT2, NEVPT3, NEVPT4(SD), FIC-MRCI and CEPA variants
  Bernardo de Souza      : ESD, SOC TD-DFT                               
  Georgi L. Stoychev     : AutoAux, RI-MP2 NMR, DLPNO-MP2 response, X2C  
  Van Anh Tran           : RI-MP2 g-tensors                              
  Willem Van den Heuvel  : Paramagnetic NMR                              
  Zikuan Wang            : NOTCH, Electric field optimization            
  Frank Wennmohs         : Technical directorship and infrastructure     
  Hang Xu                : AUTO-CI-Response properties                   
                                                                         
[FACCTs GmbH]                                                            
  Markus Bursch, Nicolas Foglia, Miquel Garcia-Rates, Ingolf Harden, Hagen Neugebauer, Anastasios Papadopoulos, 
  Christoph Riplinger, Bernardo de Souza, Georgi L. Stoychev                                                    
                                                                 
  APM, various basis sets, CI-OPT, improved COSX, DLPNO-Multilevel,           
  DOCKER, DRACO, updates on ESD, Fragmentator, GOAT, IRC, LR-CPCM, L-BFGS, MBIS, meta-GGA TD-DFT gradient, ML-optimized integration grids, 
  MM, NACMEs, nearIR, NEB, NEB-TS, NL-DFT gradient (VV10), 2- and 3-layer-ONIOM, interface openCOSMO-RS, QMMM,   
  Crystal-QMMM, RESP, rigid body optimization, SF, symmetry and pop. for TD-DFT, various functionals, SOLVATOR                                   
                                                                         
[Other institutions]                                                     
  V. Asgeirsson          : NEB                                           
  Christoph Bannwarth    : sTDA-DFT, sTD-DFT, PBEh-3c, B97-3c, D3        
  Giovanni Bistoni       : ETS/NOCV, ADLD/ADEX, COVALED                  
  Martin Brehm           : Molecular dynamics                            
  Ronald Cardenas        : ETS/NOCV                                      
  Martina Colucci        : COVALED                                       
  Sebastian Ehlert       : rSCAN, r2SCAN, r2SCAN-3c, D4, dhf basis sets  
  Marvin Friede          : D4 for Fr, Ra, Ac-Lr                          
  Lars Goerigk           : TD-DFT with DH, B97 family of functionals     
  Stefan Grimme          : VdW corrections, initial TS optimization, DFT functionals, gCP, sTDA/sTD-DF 
  Waldemar Hujo          : DFT-NL                                        
  H. Jonsson             : NEB                                           
  Holger Kruse           : gCP                                           
  Marcel Mueller         : wB97X-3c, vDZP basis set                      
  Hagen Neugebauer       : wr2SCAN, Native XTB                           
  Gianluca Regni         : ADLD/ADEX                                     
  Tobias Risthaus        : pre 6.0 range-separated hybrid DFT and stability analysis
  Lukas Wittmann         : regularized MP2, r2SCAN double-hybrids, wr2SCAN        
                                                                         
We gratefully acknowledge several colleagues who have allowed us to      
interface, adapt or use parts of their codes:                            
  Ed Valeev, F. Pavosevic, A. Kumar             : LibInt (2-el integral package), F12 methods 
  Garnet Chan, S. Sharma, J. Yang, R. Olivares  : DMRG                   
  Ulf Ekstrom                                   : XCFun DFT Library      
  Mihaly Kallay                                 : mrcc  (arbitrary order and MRCC methods)
  Frank Weinhold                                : gennbo (NPA and NBO analysis)           
  Simon Mueller                                 : openCOSMO-RS                            
  Christopher J. Cramer and Donald G. Truhlar   : smd solvation model                     
  S Lehtola, MJT Oliveira, MAL Marques          : LibXC Library                           
  Liviu Ungur et al                             : ANISO software                          


 Your calculation uses the libint2 library for the computation of 2-el integrals
 For citations please refer to: http://libint.valeyev.net

 Your ORCA version has been built with support for libXC version: 7.0.0
 For citations please refer to: https://libxc.gitlab.io

 This ORCA versions uses:
   CBLAS   interface :  Fast vector & matrix operations
   LAPACKE interface :  Fast linear algebra routines
   SCALAPACK package :  Parallel linear algebra routines
   Shared memory     :  Shared parallel matrices
   BLAS/LAPACK       :  OpenBLAS 0.3.29  USE64BITINT DYNAMIC_ARCH NO_AFFINITY Zen SINGLE_THREADED
        Core in use  :  Zen
   Copyright (c) 2011-2014, The OpenBLAS Project


  ***********************************
  * Starting time: Thu Apr 23 23:56:10 2026
  * Host name:     vmi3233575
  * Process ID:    1547400
  * Working dir.:  /root/b12_scan/jobs/random0_nn1.70
  ***********************************

NOTE: MaxCore=2500 MB was set to SCF,MP2,MDCI,CIPSI,MRCI,RASCI and CIS
      => If you want to overwrite this, your respective input block should be placed after the MaxCore statement
Your calculation utilizes the atom-pairwise dispersion correction
with the Becke-Johnson damping scheme (D3BJ)


================================================================================

----- Orbital basis set information -----
Your calculation utilizes the basis: def2-SVP
   F. Weigend and R. Ahlrichs, Phys. Chem. Chem. Phys. 7, 3297 (2005).

----- AuxJ basis set information -----
Your calculation utilizes the auxiliary basis: def2/J
   H-Rn: F. Weigend, Phys. Chem. Chem. Phys. 8, 1057 (2006).
   Fr-Lr: K. Eichkorn, F. Weigend, O. Treutler, R. Ahlrichs; Theor. Chem. Acc. 97, 119 (1997).

================================================================================
                                        WARNINGS
                       Please study these warnings very carefully!
================================================================================


WARNING: Geometry Optimization
  ===> : Switching off AutoStart
         For restart on a previous wavefunction, please use MOREAD

================================================================================
                                       INPUT FILE
================================================================================
NAME = random0_nn1.70.inp
|  1> ! BP86 def2-SVP def2/J RI Opt TightSCF D3BJ
|  2> ! SlowConv
|  3> 
|  4> %pal nprocs 8 end
|  5> %maxcore 2500
|  6> 
|  7> %geom
|  8>   MaxIter 300
|  9> end
| 10> 
| 11> * xyz 0 1
| 12> B      0.60575352      1.52550125      0.07839096
| 13> B     -2.02998506      2.34306037      0.06515801
| 14> B      1.10608349     -0.55734878     -2.42004031
| 15> B     -0.91607691      0.55942659     -1.27779630
| 16> B      0.53031199     -0.86931105     -0.85122970
| 17> B      2.34039752     -1.54664531      0.56496797
| 18> B     -1.04865355     -2.01680766     -0.49211448
| 19> B      0.44489029     -1.10913818      0.86346066
| 20> B     -0.41103172      2.90210468     -0.18904289
| 21> B      0.19171332     -0.22813290      2.44756013
| 22> B      1.92717252     -0.39551179      1.82857134
| 23> B     -2.74057541     -0.60719721     -0.61788539
| 24> *
| 25> 
| 26>                          ****END OF INPUT****
================================================================================

                       *****************************
                       * Geometry Optimization Run *
                       *****************************

Geometry optimization settings:
Update method            Update   .... BFGS
Choice of coordinates    CoordSys .... (2022) Redundant Internals
Initial Hessian          InHess   .... Almloef's Model
Max. no of cycles        MaxIter  .... 300

Convergence Tolerances:
Energy Change            TolE     ....  5.0000e-06 Eh
Max. Gradient            TolMAXG  ....  3.0000e-04 Eh/bohr
RMS Gradient             TolRMSG  ....  1.0000e-04 Eh/bohr
Max. Displacement        TolMAXD  ....  4.0000e-03 bohr
RMS Displacement         TolRMSD  ....  2.0000e-03 bohr
Strict Convergence                .... False

------------------------------------------------------------------------------
                        ORCA OPTIMIZATION COORDINATE SETUP
------------------------------------------------------------------------------

The optimization will be done in redundant internal coordinates (2022)
Making redundant internal coordinates   ...  (2022 redundants) done
Evaluating the initial hessian          ...  (Almloef) done
Evaluating the coordinates              ...  done
Calculating the B-matrix                .... done
Calculating the G-matrix                .... done
The number of degrees of freedom        ....  162

    -----------------------------------------------------------------
                    Redundant Internal Coordinates


    -----------------------------------------------------------------
         Definition                    Initial Value    Approx d2E/dq
    -----------------------------------------------------------------
      1. B(B   3,B   1)                  2.4951         0.014461   
      2. B(B   3,B   0)                  2.2558         0.034841   
      3. B(B   4,B   2)                  1.7000         0.268404   
      4. B(B   4,B   3)                  2.0773         0.067110   
      5. B(B   4,B   0)                  2.5700         0.010983   
      6. B(B   6,B   4)                  1.9847         0.094329   
      7. B(B   7,B   5)                  1.9681         0.100239   
      8. B(B   7,B   4)                  1.7335         0.237335   
      9. B(B   7,B   0)                  2.7538         0.010000   
     10. B(B   8,B   1)                  1.7315         0.239057   
     11. B(B   8,B   0)                  1.7322         0.238487   
     12. B(B   8,B   3)                  2.6322         0.010000   
     13. B(B   9,B   7)                  1.8302         0.166364   
     14. B(B  10,B   9)                  1.8501         0.154620   
     15. B(B  10,B   7)                  1.9073         0.125322   
     16. B(B  10,B   5)                  1.7586         0.216446   
     17. B(B  10,B   0)                  2.9154         0.010000   
     18. B(B  11,B   3)                  2.2639         0.033815   
     19. B(B  11,B   6)                  2.2058         0.041866   
     20. A(B   4,B   0,B   7)           37.8059         0.138782   
     21. A(B   4,B   0,B   8)          131.8721         0.205411   
     22. A(B   7,B   0,B   8)          140.3591         0.188914   
     23. A(B   8,B   0,B  10)          151.9341         0.176353   
     24. A(B   3,B   0,B  10)          112.6131         0.145520   
     25. A(B   7,B   0,B  10)           39.1889         0.126355   
     26. A(B   3,B   0,B   4)           50.4805         0.164321   
     27. A(B   3,B   0,B   7)           73.8742         0.153647   
     28. A(B   3,B   0,B   8)           81.4612         0.240173   
     29. A(B   4,B   0,B  10)           67.4465         0.132523   
     30. A(B   3,B   1,B   8)           74.5956         0.212958   
     31. A(B   8,B   3,B  11)          119.5176         0.160043   
     32. A(B   4,B   3,B  11)           98.4447         0.201693   
     33. A(B   0,B   3,B   4)           72.6244         0.202458   
     34. A(B   0,B   3,B   1)           70.8190         0.169161   
     35. A(B   1,B   3,B  11)           81.4714         0.168621   
     36. A(B   0,B   3,B  11)          126.0960         0.186153   
     37. A(B   4,B   3,B   8)          113.1782         0.171965   
     38. A(B   1,B   3,B   4)          133.7864         0.181982   
     39. A(B   1,B   3,B   8)           39.3595         0.147617   
     40. A(B   0,B   3,B   8)           40.5996         0.160525   
     41. A(B   2,B   4,B   3)           85.4178         0.269106   
     42. A(B   0,B   4,B   2)           98.7930         0.208567   
     43. A(B   6,B   4,B   7)           72.6517         0.278191   
     44. A(B   0,B   4,B   6)          119.7800         0.183367   
     45. A(B   0,B   4,B   3)           56.8952         0.176369   
     46. A(B   3,B   4,B   6)           83.1582         0.231147   
     47. A(B   3,B   4,B   7)          105.3052         0.264160   
     48. A(B   2,B   4,B   6)          122.8568         0.283533   
     49. A(B   2,B   4,B   7)          162.7271         0.328713   
     50. A(B   0,B   4,B   7)           76.8541         0.205284   
     51. A(B   7,B   5,B  10)           61.2623         0.276853   
     52. A(B   4,B   6,B  11)          103.3230         0.216749   
     53. A(B   4,B   7,B   5)           80.4026         0.280811   
     54. A(B   9,B   7,B  10)           59.2987         0.275167   
     55. A(B   5,B   7,B  10)           53.9444         0.254998   
     56. A(B   4,B   7,B  10)          114.2336         0.290756   
     57. A(B   5,B   7,B   9)          111.8087         0.265990   
     58. A(B   0,B   7,B  10)           74.9832         0.175373   
     59. A(B   0,B   7,B   9)           78.1291         0.181092   
     60. A(B   0,B   7,B   5)           96.4987         0.171115   
     61. A(B   4,B   7,B   9)          142.7845         0.304117   
     62. A(B   0,B   7,B   4)           65.3400         0.188804   
     63. A(B   0,B   8,B   3)           57.9392         0.199544   
     64. A(B   0,B   8,B   1)          105.6396         0.322768   
     65. A(B   1,B   8,B   3)           66.0448         0.199604   
     66. A(B   7,B   9,B  10)           62.4266         0.284233   
     67. A(B   5,B  10,B   7)           64.7933         0.286592   
     68. A(B   0,B  10,B   9)           73.5053         0.168192   
     69. A(B   0,B  10,B   7)           65.8279         0.164514   
     70. A(B   0,B  10,B   5)           96.1117         0.174456   
     71. A(B   7,B  10,B   9)           58.2747         0.272108   
     72. A(B   5,B  10,B   9)          121.3345         0.296215   
     73. A(B   3,B  11,B   6)           74.2030         0.190278   
     74. D(B  11,B   3,B   1,B   8)    165.5586         0.010000   
     75. D(B   8,B   3,B   0,B   4)   -177.2116         0.010000   
     76. D(B   1,B   3,B   0,B   4)    151.2262         0.010000   
     77. D(B   4,B   3,B   0,B   7)    -34.1398         0.010000   
     78. D(B   4,B   3,B   0,B  10)    -28.0901         0.010000   
     79. D(B   0,B   3,B   1,B   8)     32.4873         0.010000   
     80. D(B   1,B   3,B   0,B   8)    -31.5622         0.010000   
     81. D(B   4,B   3,B   1,B   8)     72.0065         0.010000   
     82. D(B   4,B   3,B   0,B   8)    177.2116         0.010000   
     83. D(B   1,B   3,B   0,B   7)    117.0864         0.010000   
     84. D(B   1,B   3,B   0,B  10)    123.1361         0.010000   
     85. D(B   2,B   4,B   0,B   3)     78.6174         0.010000   
     86. D(B   2,B   4,B   0,B   7)   -162.9666         0.010000   
     87. D(B   6,B   4,B   3,B  11)      7.2020         0.010000   
     88. D(B   6,B   4,B   3,B   8)    134.4588         0.010000   
     89. D(B   2,B   4,B   0,B   8)     74.9132         0.010000   
     90. D(B   2,B   4,B   3,B   1)   -142.6426         0.010000   
     91. D(B   6,B   4,B   0,B   8)    -61.2273         0.010000   
     92. D(B   2,B   4,B   3,B  11)    131.1058         0.010000   
     93. D(B   6,B   4,B   3,B   0)    132.4852         0.010000   
     94. D(B   2,B   4,B   3,B   8)   -101.6374         0.010000   
     95. D(B   6,B   4,B   3,B   1)     93.4536         0.010000   
     96. D(B   2,B   4,B   3,B   0)   -103.6110         0.010000   
     97. D(B   3,B   4,B   0,B   8)     -3.7042         0.010000   
     98. D(B   3,B   4,B   0,B   7)    118.4160         0.010000   
     99. D(B   2,B   4,B   0,B  10)   -129.4594         0.010000   
    100. D(B   3,B   4,B   0,B  10)    151.9231         0.010000   
    101. D(B  11,B   6,B   4,B   3)     -7.5157         0.010000   
    102. D(B  11,B   6,B   4,B   2)    -87.5373         0.010000   
    103. D(B  11,B   6,B   4,B   0)     37.8606         0.010000   
    104. D(B  11,B   6,B   4,B   7)    100.9059         0.010000   
    105. D(B   0,B   7,B   5,B  10)     66.0776         0.010000   
    106. D(B   9,B   7,B   5,B  10)    -13.7031         0.010000   
    107. D(B   4,B   7,B   5,B  10)    129.6445         0.010000   
    108. D(B   9,B   7,B   4,B   6)   -115.5635         0.010000   
    109. D(B   9,B   7,B   4,B   3)    -37.9723         0.010000   
    110. D(B   9,B   7,B   4,B   2)     88.9805         0.010000   
    111. D(B   5,B   7,B   4,B   0)   -101.7673         0.010000   
    112. D(B   5,B   7,B   4,B   6)    130.8380         0.010000   
    113. D(B   5,B   7,B   4,B   2)    -24.6181         0.010000   
    114. D(B   9,B   7,B   0,B   8)    -74.0350         0.010000   
    115. D(B   5,B   7,B   0,B  10)    -49.9182         0.010000   
    116. D(B   5,B   7,B   0,B   4)     76.2940         0.010000   
    117. D(B   5,B   7,B   0,B   3)    121.2249         0.010000   
    118. D(B   5,B   7,B   4,B   3)   -151.5709         0.010000   
    119. D(B   9,B   7,B   4,B   0)     11.8313         0.010000   
    120. D(B   5,B   7,B   0,B   8)    174.9791         0.010000   
    121. D(B   4,B   7,B   0,B  10)   -126.2122         0.010000   
    122. D(B   4,B   7,B   0,B   3)     44.9309         0.010000   
    123. D(B   4,B   7,B   0,B   8)     98.6851         0.010000   
    124. D(B   1,B   8,B   3,B   0)   -128.7824         0.010000   
    125. D(B   1,B   8,B   3,B   4)   -131.6773         0.010000   
    126. D(B   0,B   8,B   3,B  11)    112.3181         0.010000   
    127. D(B   0,B   8,B   3,B   4)     -2.8949         0.010000   
    128. D(B   0,B   8,B   1,B   3)    -43.3175         0.010000   
    129. D(B   3,B   8,B   0,B   7)    -51.5767         0.010000   
    130. D(B   3,B   8,B   0,B   4)      2.8887         0.010000   
    131. D(B   0,B   8,B   3,B   1)    128.7824         0.010000   
    132. D(B   1,B   8,B   0,B  10)    -75.3001         0.010000   
    133. D(B   1,B   8,B   0,B   7)     -3.8646         0.010000   
    134. D(B   1,B   8,B   0,B   4)     50.6009         0.010000   
    135. D(B   1,B   8,B   3,B  11)    -16.4643         0.010000   
    136. D(B   1,B   8,B   0,B   3)     47.7121         0.010000   
    137. D(B  10,B   9,B   7,B   0)    -79.4492         0.010000   
    138. D(B  10,B   9,B   7,B   5)     12.8695         0.010000   
    139. D(B  10,B   9,B   7,B   4)    -90.4256         0.010000   
    140. D(B   0,B  10,B   9,B   7)     71.3969         0.010000   
    141. D(B   5,B  10,B   9,B   7)    -15.7208         0.010000   
    142. D(B   0,B  10,B   7,B   4)     53.5243         0.010000   
    143. D(B   9,B  10,B   7,B   0)     84.9281         0.010000   
    144. D(B   9,B  10,B   7,B   5)   -165.1798         0.010000   
    145. D(B   5,B  10,B   7,B   0)   -109.8921         0.010000   
    146. D(B   5,B  10,B   7,B   9)    165.1798         0.010000   
    147. D(B   5,B  10,B   7,B   4)    -56.3679         0.010000   
    148. D(B   0,B  10,B   5,B   7)    -59.6313         0.010000   
    149. D(B   9,B  10,B   5,B   7)     14.7569         0.010000   
    150. D(B   7,B  10,B   0,B   4)    -32.3803         0.010000   
    151. D(B   9,B  10,B   7,B   4)    138.4524         0.010000   
    152. D(B   7,B  10,B   0,B   3)     -9.2201         0.010000   
    153. D(B   7,B  10,B   0,B   8)    106.8418         0.010000   
    154. D(B   5,B  10,B   0,B   7)     58.8324         0.010000   
    155. D(B   5,B  10,B   0,B   4)     26.4521         0.010000   
    156. D(B   5,B  10,B   0,B   3)     49.6123         0.010000   
    157. D(B   5,B  10,B   0,B   8)    165.6742         0.010000   
    158. D(B   3,B  11,B   6,B   4)      7.1138         0.010000   
    159. D(B   6,B  11,B   3,B   8)   -129.4570         0.010000   
    160. D(B   6,B  11,B   3,B   1)   -139.9286         0.010000   
    161. D(B   6,B  11,B   3,B   0)    -81.2940         0.010000   
    162. D(B   6,B  11,B   3,B   4)     -6.6840         0.010000   
    -----------------------------------------------------------------

Number of atoms                         .... 12
Number of degrees of freedom            .... 162


         *************************************************************
         *                GEOMETRY OPTIMIZATION CYCLE   1            *
         *************************************************************
---------------------------------
CARTESIAN COORDINATES (ANGSTROEM)
---------------------------------
  B      0.605754    1.525501    0.078391
  B     -2.029985    2.343060    0.065158
  B      1.106083   -0.557349   -2.420040
  B     -0.916077    0.559427   -1.277796
  B      0.530312   -0.869311   -0.851230
  B      2.340398   -1.546645    0.564968
  B     -1.048654   -2.016808   -0.492114
  B      0.444890   -1.109138    0.863461
  B     -0.411032    2.902105   -0.189043
  B      0.191713   -0.228133    2.447560
  B      1.927173   -0.395512    1.828571
  B     -2.740575   -0.607197   -0.617885

----------------------------
CARTESIAN COORDINATES (A.U.)
----------------------------
  NO LB      ZA    FRAG     MASS         X           Y           Z
   0 B     5.0000    0    10.810    1.144708    2.882780    0.148137
   1 B     5.0000    0    10.810   -3.836116    4.427742    0.123131
   2 B     5.0000    0    10.810    2.090195   -1.053237   -4.573213
   3 B     5.0000    0    10.810   -1.731134    1.057163   -2.414685
   4 B     5.0000    0    10.810    1.002144   -1.642760   -1.608591
   5 B     5.0000    0    10.810    4.422710   -2.922736    1.067635
   6 B     5.0000    0    10.810   -1.981668   -3.811214   -0.929962
   7 B     5.0000    0    10.810    0.840721   -2.095967    1.631704
   8 B     5.0000    0    10.810   -0.776737    5.484183   -0.357239
   9 B     5.0000    0    10.810    0.362286   -0.431109    4.625218
  10 B     5.0000    0    10.810    3.641828   -0.747409    3.455499
  11 B     5.0000    0    10.810   -5.178937   -1.147436   -1.167634

--------------------------------
INTERNAL COORDINATES (ANGSTROEM)
--------------------------------
 B      0   0   0     0.000000000000     0.00000000     0.00000000
 B      1   0   0     2.759655030572     0.00000000     0.00000000
 B      1   2   0     3.291010959761   109.21166060     0.00000000
 B      1   2   3     2.255773036135    58.64415219   350.84635700
 B      3   1   2     1.700000002401    50.51072401   274.36226010
 B      5   3   1     2.395998156552   109.96613748   265.08114840
 B      5   3   1     1.984652208248   122.85676240   134.28183291
 B      5   3   1     1.733486933839   162.72706792   286.11760884
 B      2   1   3     1.731519146646    37.18835329   248.10079140
 B      8   5   3     1.830202178007   142.78452924    88.98045191
 B      6   5   3     1.758566677203    93.56277896   129.86861640
 B      7   5   3     2.205769598779   103.32301818   272.46274114

---------------------------
INTERNAL COORDINATES (A.U.)
---------------------------
 B      0   0   0     0.000000000000     0.00000000     0.00000000
 B      1   0   0     5.214992231879     0.00000000     0.00000000
 B      1   2   0     6.219109417681   109.21166060     0.00000000
 B      1   2   3     4.262793258579    58.64415219   350.84635700
 B      3   1   2     3.212534432204    50.51072401   274.36226010
 B      5   3   1     4.527780333263   109.96613748   265.08114840
 B      5   3   1     3.750449144671   122.85676240   134.28183291
 B      5   3   1     3.275815561687   162.72706792   286.11760884
 B      2   1   3     3.272096982802    37.18835329   248.10079140
 B      8   5   3     3.458580886139   142.78452924    88.98045191
 B      6   5   3     3.323209408153    93.56277896   129.86861640
 B      7   5   3     4.168300456222   103.32301818   272.46274114

---------------------
BASIS SET INFORMATION
---------------------
There are 1 groups of distinct atoms

 Group   1 Type B   : 7s4p1d contracted to 3s2p1d pattern {511/31/1}

Atom   0B    basis set group =>   1
Atom   1B    basis set group =>   1
Atom   2B    basis set group =>   1
Atom   3B    basis set group =>   1
Atom   4B    basis set group =>   1
Atom   5B    basis set group =>   1
Atom   6B    basis set group =>   1
Atom   7B    basis set group =>   1
Atom   8B    basis set group =>   1
Atom   9B    basis set group =>   1
Atom  10B    basis set group =>   1
Atom  11B    basis set group =>   1
---------------------------------
AUXILIARY/J BASIS SET INFORMATION
---------------------------------
There are 1 groups of distinct atoms

 Group   1 Type B   : 12s5p4d2f1g contracted to 6s4p3d1f1g pattern {711111/2111/211/2/1}

Atom   0B    basis set group =>   1
Atom   1B    basis set group =>   1
Atom   2B    basis set group =>   1
Atom   3B    basis set group =>   1
Atom   4B    basis set group =>   1
Atom   5B    basis set group =>   1
Atom   6B    basis set group =>   1
Atom   7B    basis set group =>   1
Atom   8B    basis set group =>   1
Atom   9B    basis set group =>   1
Atom  10B    basis set group =>   1
Atom  11B    basis set group =>   1


           ************************************************************
           *        Program running with 8 parallel MPI-processes     *
           *              working on a common directory               *
           ************************************************************
------------------------------------------------------------------------------
                             ORCA STARTUP CALCULATIONS
                           -- RI-GTO INTEGRALS CHOSEN --
------------------------------------------------------------------------------
------------------------------------------------------------------------------
                   ___                                                        
                  /   \      - P O W E R E D   B Y -                         
                 /     \                                                     
                 |  |  |   _    _      __       _____    __    __             
                 |  |  |  | |  | |    /  \     |  _  \  |  |  /  |          
                  \  \/   | |  | |   /    \    | | | |  |  | /  /          
                 / \  \   | |__| |  /  /\  \   | |_| |  |  |/  /          
                |  |  |   |  __  | /  /__\  \  |    /   |      \           
                |  |  |   | |  | | |   __   |  |    \   |  |\   \          
                \     /   | |  | | |  |  |  |  | |\  \  |  | \   \       
                 \___/    |_|  |_| |__|  |__|  |_| \__\ |__|  \__/        
                                                                              
                      - O R C A' S   B I G   F R I E N D -                    
                                      &                                       
                       - I N T E G R A L  F E E D E R -                       
                                                                              
 v1 FN, 2020, v2 2021, v3 2022-2024                                           
------------------------------------------------------------------------------


----------------------
SHARK INTEGRAL PACKAGE
----------------------

Number of atoms                             ...     12
Number of basis functions                   ...    168
Number of shells                            ...     72
Maximum angular momentum                    ...      2
Integral batch strategy                     ... SHARK/LIBINT Hybrid
RI-J (if used) integral strategy            ... SPLIT-RIJ (Revised 2003 algorithm where possible)
Printlevel                                  ...      1
Contraction scheme used                     ... SEGMENTED contraction
Prescreening option                         ... SCHWARTZ
   Thresh                                   ... 2.500e-11
   Tcut                                     ... 2.500e-12
   Tpresel                                  ... 2.500e-12 
Coulomb Range Separation                    ... NOT USED
Exchange Range Separation                   ... NOT USED
Multipole approximations                    ... NOT USED
Finite Nucleus Model                        ... NOT USED
CABS basis                                  ... NOT available
Auxiliary Coulomb fitting basis             ... AVAILABLE
   # of basis functions in Aux-J            ...    588
   # of shells in Aux-J                     ...    180
   Maximum angular momentum in Aux-J        ...      4
Auxiliary J/K fitting basis                 ... NOT available
Auxiliary Correlation fitting basis         ... NOT available
Auxiliary 'external' fitting basis          ... NOT available

Checking pre-screening integrals            ... done (  0.1 sec) Dimension = 72
   => SHARK Basis and OBASIS are compatible. Storing Pre-screening
Shell pair information
Shell pair cut-off parameter TPreSel        ...   2.5e-12
Total number of shell pairs                 ...      2628
Shell pairs after pre-screening             ...      2546
Total number of primitive shell pairs       ...     10596
Primitive shell pairs kept                  ...      7384
          la=0 lb=0:    614 shell pairs
          la=1 lb=0:    854 shell pairs
          la=1 lb=1:    300 shell pairs
          la=2 lb=0:    412 shell pairs
          la=2 lb=1:    288 shell pairs
          la=2 lb=2:     78 shell pairs

Checking whether 4 symmetric matrices of dimension 168 fit in memory
:Max Core in MB      =   2500.00
 MB in use           =      6.78
 MB left             =   2493.22
 MB needed           =      0.43
 Data fit in memory  = YES
Calculating RI/J V-Matrix + Cholesky decomp.... done (  0.1 sec)
Calculating Nuclear repulsion               ... done (  0.0 sec) ENN=    288.369488274965 Eh

Diagonalization of the overlap matrix:
Smallest eigenvalue                        ... 5.413e-04
Time for diagonalization                   ...    0.007 sec
Threshold for overlap eigenvalues          ... 1.000e-07
Number of eigenvalues below threshold      ... 0
Time for construction of square roots      ...    0.010 sec
Total time needed                          ...    0.035 sec

-------------------
DFT GRID GENERATION
-------------------

General Integration Accuracy     IntAcc      ... 4.388
Radial Grid Type                 RadialGrid  ... OptM3 with GC (2021)
Angular Grid (max. ang.)         AngularGrid ... 4 (Lebedev-302)
Angular grid pruning method      GridPruning ... 4 (adaptive)
Weight generation scheme         WeightScheme... mBecke (2022)
Basis function cutoff            BFCut       ... 1.0000e-11
Integration weight cutoff        WCut        ... 1.0000e-14
Partially contracted basis set               ... off
Rotationally invariant grid construction     ... off
Angular grids for H and He will be reduced by one unit

Total number of grid points                  ...    71958
Total number of batches                      ...     1130
Average number of points per batch           ...       63
Average number of grid points per atom       ...     5996
Grids setup in   1.3 sec
Initializing property integral containers    ... done (  0.0 sec)

SHARK setup successfully completed in   1.8 seconds

Maximum memory used throughout the entire STARTUP-calculation: 19.9 MB


           ************************************************************
           *        Program running with 8 parallel MPI-processes     *
           *              working on a common directory               *
           ************************************************************
-------------------------------------------------------------------------------
                                 ORCA GUESS
                   Start orbitals & Density for SCF / CASSCF
-------------------------------------------------------------------------------

------------
SCF SETTINGS
------------
Hamiltonian:
 Density Functional     Method          .... DFT(GTOs)
 Exchange Functional    Exchange        .... B88
   X-Alpha parameter    XAlpha          ....  0.666667
   Becke's b parameter  XBeta           ....  0.004200
 Correlation Functional Correlation     .... P86
 LDA part of GGA corr.  LDAOpt          .... PW91-LDA
 Gradients option       PostSCFGGA      .... off
   NL short-range parameter             ....  4.400000
 RI-approximation to the Coulomb term is turned on
   Number of AuxJ basis functions       .... 588


General Settings:
 Integral files         IntName         .... random0_nn1.70
 Hartree-Fock type      HFTyp           .... RHF
 Total Charge           Charge          ....    0
 Multiplicity           Mult            ....    1
 Number of Electrons    NEL             ....   60
 Basis Dimension        Dim             ....  168
 Nuclear Repulsion      ENuc            ....    288.3694882750 Eh

Convergence Acceleration:
 AO-DIIS                CNVDIIS         .... on
   Start iteration      DIISMaxIt       ....     0
   Startup error        DIISStart       ....  0.200000
   # of expansion vecs  DIISMaxEq       ....     5
   Bias factor          DIISBfac        ....   1.050
   Max. coefficient     DIISMaxC        ....  10.000
 MO-DIIS                CNVKDIIS        .... off
 Trust-Rad. Augm. Hess. CNVTRAH         .... auto
   Auto Start mean grad. ratio tolernc. ....  1.125000
   Auto Start start iteration           ....    50
   Auto Start num. interpolation iter.  ....    10
   Max. Number of Micro iterations      ....    24
   Max. Number of Macro iterations      .... Maxiter - #DIIS iter
   Number of Davidson start vectors     ....     2
   Converg. threshold    (grad. norm)   ....   1.000e-05
   Grad. Scal. Fac. for Micro threshold ....   0.100
   Minimum threshold for Micro iter.    ....   1.000e-02
   NR start threshold (gradient norm)   ....   1.000e-04
   Initial trust radius                 ....   0.400
   Minimum AH scaling param. (alpha)    ....   1.000
   Maximum AH scaling param. (alpha)    .... 1000.000
   Quad. conv. algorithm                .... NR
   White noise on init. David. guess    .... on
   Maximum white noise                  ....   0.010
   Pseudo random numbers                .... off
   Inactive MOs                         .... canonical
   Orbital update algorithm             .... Taylor
   Preconditioner                       .... Diag
   Full preconditioner red. dimension   ....   250
 SOSCF                 CNVSOSCF           .... on
   Start iteration     SOSCFMaxIt         ....   150
   Startup grad/error  SOSCFStart         ....  0.001000
   Hessian update      SOSCFHessUp        .... L-BFGS
   Autom. constraints  SOSCFAutoConstrain .... off
 Level Shifting         CNVShift        .... on
   Level shift para.    LevelShift      ....    0.2500
   Turn off err/grad.   ShiftErr        ....    0.0000
 Zerner damping         CNVZerner       .... off
 Static damping         CNVDamp         .... on
   Fraction old density DampFac         ....    0.8500
   Max. Damping (<1)    DampMax         ....    0.9800
   Min. Damping (>=0)   DampMin         ....    0.0000
   Turn off err/grad.   DampErr         ....    0.0300

SCF Procedure:
 Maximum # iterations   MaxIter         ....   125
 SCF integral mode      SCFMode         .... Direct
   Integral package                     .... SHARK and LIBINT hybrid scheme
 Reset frequency        DirectResetFreq ....    20
 Integral Threshold     Thresh          ....  2.500e-11 Eh
 Primitive CutOff       TCut            ....  2.500e-12 Eh

Convergence Tolerance:
 Convergence Check Mode ConvCheckMode   .... Total+1el-Energy
 Convergence forced     ConvForced      .... 0
 Energy Change          TolE            ....  1.000e-08 Eh
 1-El. energy change                    ....  1.000e-05 Eh
 Orbital Gradient       TolG            ....  1.000e-05
 Orbital Rotation angle TolX            ....  1.000e-05
 DIIS Error             TolErr          ....  5.000e-07

------------------------------
INITIAL GUESS: MODEL POTENTIAL
------------------------------
Loading Hartree-Fock densities                     ... done
Calculating cut-offs                               ... done
Initializing the effective Hamiltonian             ... done
Setting up the integral package (SHARK)            ... done
Starting the Coulomb interaction                   ... done (   0.1 sec)
Making the grid                                    ... done (   0.5 sec)
Mapping shells                                     ... done
Starting the XC term evaluation                    ... done (   0.0 sec)
  promolecular density results
     # of electrons  =     60.000687425
     EX              =    -45.024394994
     EC              =     -1.874587169
     EX+EC           =    -46.898982163
Transforming the Hamiltonian                       ... done (   0.0 sec)
Diagonalizing the Hamiltonian                      ... done (   0.0 sec)
Back transforming the eigenvectors                 ... done (   0.0 sec)
Now organizing SCF variables                       ... done
                      ------------------
                      INITIAL GUESS DONE (   0.7 sec)
                      ------------------
             **** ENERGY FILE WAS UPDATED (random0_nn1.70.en.tmp) ****
Finished Guess after   1.5 sec
Maximum memory used throughout the entire GUESS-calculation: 9.6 MB


           ************************************************************
           *        Program running with 8 parallel MPI-processes     *
           *              working on a common directory               *
           ************************************************************

-------------------------------------------------------------------------------------------
                                      ORCA LEAN-SCF
                              memory conserving SCF solver
-------------------------------------------------------------------------------------------

----------------------------------------D-I-I-S--------------------------------------------
Iteration    Energy (Eh)           Delta-E    RMSDP     MaxDP     DIISErr   Damp  Time(sec)
-------------------------------------------------------------------------------------------
               ***  Starting incremental Fock matrix formation  ***
    1    -296.5007457350101276     0.00e+00  1.02e-02  1.02e-01  1.39e-01  0.850   0.5
Warning: op=0 Small HOMO/LUMO gap (  -0.045) - skipping pre-diagonalization
         Will do a full diagonalization
    2    -296.6871735586698833    -1.86e-01  9.70e-03  7.97e-02  8.35e-02  0.850   0.4
                               ***Turning on AO-DIIS***
    3    -296.7224606609487410    -3.53e-02  5.85e-03  3.41e-02  4.19e-02  0.850   0.3
    4    -296.7227877833098546    -3.27e-04  3.89e-03  2.46e-02  4.13e-02  0.850   0.4
    5    -296.7376188310564658    -1.48e-02  2.80e-03  1.85e-02  4.06e-02  0.850   0.6
    6    -296.7599509779568052    -2.23e-02  2.20e-03  1.70e-02  3.68e-02  0.850   0.3
    7    -296.7822873162373298    -2.23e-02  1.88e-03  1.63e-02  3.22e-02  0.850   0.4
    8    -296.8023004496093336    -2.00e-02  1.69e-03  1.49e-02  2.60e-02  0.850   0.5
    9    -296.8191484894470022    -1.68e-02  9.90e-03  8.83e-02  1.95e-02  0.000   0.6
   10    -296.8845303233446202    -6.54e-02  1.79e-03  1.85e-02  2.11e-02  0.000   0.3
   11    -296.8891750960564195    -4.64e-03  1.26e-03  1.27e-02  1.57e-02  0.000   0.4
   12    -296.8917511962459912    -2.58e-03  1.12e-03  8.75e-03  1.05e-02  0.000   0.7
   13    -296.8932732378551691    -1.52e-03  8.28e-04  6.27e-03  6.34e-03  0.000   0.5
   14    -296.8939933958088204    -7.20e-04  6.11e-04  4.70e-03  4.27e-03  0.000   0.4
   15    -296.8944030965835736    -4.10e-04  4.66e-04  2.64e-03  2.19e-03  0.000   0.3
   16    -296.8945713078372819    -1.68e-04  4.08e-04  1.81e-03  2.03e-03  0.000   0.4
   17    -296.8946903613707491    -1.19e-04  3.42e-04  1.36e-03  1.17e-03  0.000   0.3
   18    -296.8947714981856052    -8.11e-05  3.19e-04  1.69e-03  1.08e-03  0.000   0.3
   19    -296.8948384658967825    -6.70e-05  2.97e-04  1.16e-03  1.02e-03  0.000   0.3
                              *** Initializing SOSCF ***
---------------------------------------S-O-S-C-F--------------------------------------
Iteration    Energy (Eh)           Delta-E    RMSDP     MaxDP     MaxGrad    Time(sec)
--------------------------------------------------------------------------------------
   20    -296.8948968336661665    -5.84e-05  2.73e-04  1.14e-03  9.79e-04     0.3
               *** Restarting incremental Fock matrix formation ***
   21    -296.8949440910553221    -4.73e-05  7.39e-04  3.71e-03  1.60e-03     0.7
   22    -296.8950103665126790    -6.63e-05  2.08e-03  9.89e-03  9.79e-04     0.5
   23    -296.8952497830470065    -2.39e-04  2.79e-03  1.21e-02  9.01e-04     1.0
   24    -296.8952711138551877    -2.13e-05  6.76e-04  4.36e-03  1.14e-03     1.5
   25    -296.8953752280089020    -1.04e-04  7.66e-04  5.94e-03  1.00e-03     0.8
   26    -296.8952866159178257     8.86e-05  4.77e-04  3.25e-03  2.22e-03     0.3
   27    -296.8954000026283211    -1.13e-04  6.86e-04  3.97e-03  3.76e-04     0.3
   28    -296.8953713077373777     2.87e-05  3.67e-04  2.13e-03  7.86e-04     0.8
   29    -296.8954167377758040    -4.54e-05  2.56e-04  1.96e-03  1.66e-04     0.6
   30    -296.8954112416205362     5.50e-06  1.79e-04  1.17e-03  2.87e-04     0.4
   31    -296.8954207678439161    -9.53e-06  1.72e-04  1.51e-03  7.95e-05     0.3
   32    -296.8954181364437090     2.63e-06  9.45e-05  7.41e-04  2.13e-04     1.0
   33    -296.8954219860584089    -3.85e-06  4.27e-05  2.94e-04  3.14e-05     0.7
   34    -296.8954221435132013    -1.57e-07  7.04e-05  3.41e-04  2.27e-05     0.4
   35    -296.8954222467220916    -1.03e-07  1.54e-05  1.27e-04  1.72e-05     0.9
   36    -296.8954222921919381    -4.55e-08  1.47e-05  7.86e-05  1.56e-05     0.8
   37    -296.8954223097750855    -1.76e-08  1.31e-05  5.37e-05  9.48e-06     0.4
   38    -296.8954223245521007    -1.48e-08  1.78e-05  7.71e-05  6.23e-06     0.4
   39    -296.8954223314959791    -6.94e-09  3.55e-06  3.05e-05  4.42e-06     0.3
                 **** Energy Check signals convergence ****

               *****************************************************
               *                     SUCCESS                       *
               *           SCF CONVERGED AFTER  39 CYCLES          *
               *****************************************************

             **** ENERGY FILE WAS UPDATED (random0_nn1.70.en.tmp) ****

----------------
TOTAL SCF ENERGY
----------------

Total Energy       :       -296.89542233384054 Eh           -8078.93517 eV

Components:
Nuclear Repulsion  :        288.36948827496519 Eh            7846.93271 eV
Electronic Energy  :       -585.26491060880585 Eh          -15925.86787 eV
One Electron Energy:       -964.67154400349398 Eh          -26250.04724 eV
Two Electron Energy:        379.40663339468819 Eh           10324.17937 eV

Virial components:
Potential Energy   :       -588.62200369620950 Eh          -16017.21902 eV
Kinetic Energy     :        291.72658136236890 Eh            7938.28385 eV
Virial Ratio       :          2.01771810078922

DFT components:
N(Alpha)           :       29.999988146821 electrons
N(Beta)            :       29.999988146821 electrons
N(Total)           :       59.999976293643 electrons
E(X)               :      -45.330001758233 Eh       
E(C)               :       -1.901818366293 Eh       
E(XC)              :      -47.231820124526 Eh       

---------------
SCF CONVERGENCE
---------------

  Last Energy change         ...    6.9439e-09  Tolerance :   1.0000e-08
  Last MAX-Density change    ...    3.0518e-05  Tolerance :   1.0000e-07
  Last RMS-Density change    ...    3.5510e-06  Tolerance :   5.0000e-09
  Last DIIS Error            ...    9.7905e-04  Tolerance :   5.0000e-07
  Last Orbital Gradient      ...    4.4150e-06  Tolerance :   1.0000e-05
  Last Orbital Rotation      ...    3.4915e-05  Tolerance :   1.0000e-05


----------------
ORBITAL ENERGIES
----------------

  NO   OCC          E(Eh)            E(eV) 
   0   2.0000      -6.679508      -181.7587 
   1   2.0000      -6.658087      -181.1758 
   2   2.0000      -6.651802      -181.0047 
   3   2.0000      -6.646668      -180.8650 
   4   2.0000      -6.638298      -180.6373 
   5   2.0000      -6.635561      -180.5628 
   6   2.0000      -6.633838      -180.5159 
   7   2.0000      -6.629563      -180.3996 
   8   2.0000      -6.610698      -179.8862 
   9   2.0000      -6.607083      -179.7879 
  10   2.0000      -6.602434      -179.6614 
  11   2.0000      -6.594830      -179.4545 
  12   2.0000      -0.603589       -16.4245 
  13   2.0000      -0.542728       -14.7684 
  14   2.0000      -0.511288       -13.9129 
  15   2.0000      -0.456498       -12.4219 
  16   2.0000      -0.439209       -11.9515 
  17   2.0000      -0.415684       -11.3113 
  18   2.0000      -0.388569       -10.5735 
  19   2.0000      -0.358578        -9.7574 
  20   2.0000      -0.328048        -8.9266 
  21   2.0000      -0.306484        -8.3399 
  22   2.0000      -0.277310        -7.5460 
  23   2.0000      -0.271093        -7.3768 
  24   2.0000      -0.257803        -7.0152 
  25   2.0000      -0.249455        -6.7880 
  26   2.0000      -0.236716        -6.4414 
  27   2.0000      -0.231015        -6.2862 
  28   2.0000      -0.221112        -6.0168 
  29   2.0000      -0.212007        -5.7690 
  30   0.0000      -0.206638        -5.6229 
  31   0.0000      -0.200680        -5.4608 
  32   0.0000      -0.185199        -5.0395 
  33   0.0000      -0.175958        -4.7881 
  34   0.0000      -0.163467        -4.4482 
  35   0.0000      -0.154672        -4.2088 
  36   0.0000      -0.138972        -3.7816 
  37   0.0000      -0.125264        -3.4086 
  38   0.0000      -0.113257        -3.0819 
  39   0.0000      -0.107070        -2.9135 
  40   0.0000      -0.099070        -2.6958 
*Only the first 10 virtual orbitals were printed.

                    ********************************
                    * MULLIKEN POPULATION ANALYSIS *
                    ********************************

-----------------------
MULLIKEN ATOMIC CHARGES
-----------------------
   0 B :    0.003978
   1 B :    0.009808
   2 B :    0.019634
   3 B :   -0.225213
   4 B :   -0.005018
   5 B :    0.050399
   6 B :    0.024167
   7 B :   -0.170547
   8 B :    0.013011
   9 B :    0.111820
  10 B :   -0.018644
  11 B :    0.186606
Sum of atomic charges:    0.0000000

--------------------------------
MULLIKEN REDUCED ORBITAL CHARGES
--------------------------------
  0 B s       :     3.403706  s :     3.403706
      pz      :     0.463232  p :     1.569018
      px      :     0.560188
      py      :     0.545598
      dz2     :     0.002753  d :     0.023298
      dxz     :     0.004255
      dyz     :     0.004952
      dx2y2   :     0.006630
      dxy     :     0.004708

  1 B s       :     3.600723  s :     3.600723
      pz      :     0.372524  p :     1.370758
      px      :     0.581003
      py      :     0.417231
      dz2     :     0.002118  d :     0.018712
      dxz     :     0.004551
      dyz     :     0.001167
      dx2y2   :     0.004532
      dxy     :     0.006344

  2 B s       :     3.839813  s :     3.839813
      pz      :     0.608013  p :     1.121328
      px      :     0.211976
      py      :     0.301338
      dz2     :     0.006170  d :     0.019225
      dxz     :     0.005598
      dyz     :     0.004606
      dx2y2   :     0.001097
      dxy     :     0.001754

  3 B s       :     3.521426  s :     3.521426
      pz      :     0.476154  p :     1.678625
      px      :     0.600881
      py      :     0.601590
      dz2     :     0.003265  d :     0.025162
      dxz     :     0.004456
      dyz     :     0.004868
      dx2y2   :     0.006234
      dxy     :     0.006339

  4 B s       :     3.051329  s :     3.051329
      pz      :     0.610523  p :     1.910210
      px      :     0.669586
      py      :     0.630101
      dz2     :     0.009598  d :     0.043478
      dxz     :     0.012412
      dyz     :     0.008119
      dx2y2   :     0.006207
      dxy     :     0.007142

  5 B s       :     3.504737  s :     3.504737
      pz      :     0.504075  p :     1.420465
      px      :     0.476842
      py      :     0.439548
      dz2     :     0.002942  d :     0.024399
      dxz     :     0.005936
      dyz     :     0.004747
      dx2y2   :     0.006756
      dxy     :     0.004018

  6 B s       :     3.646331  s :     3.646331
      pz      :     0.382953  p :     1.308415
      px      :     0.545210
      py      :     0.380251
      dz2     :     0.002647  d :     0.021087
      dxz     :     0.003044
      dyz     :     0.003490
      dx2y2   :     0.004139
      dxy     :     0.007767

  7 B s       :     3.081502  s :     3.081502
      pz      :     0.720005  p :     2.042901
      px      :     0.691674
      py      :     0.631222
      dz2     :     0.010114  d :     0.046144
      dxz     :     0.014315
      dyz     :     0.008182
      dx2y2   :     0.006025
      dxy     :     0.007509

  8 B s       :     3.332201  s :     3.332201
      pz      :     0.505034  p :     1.629717
      px      :     0.637095
      py      :     0.487589
      dz2     :     0.001916  d :     0.025071
      dxz     :     0.001669
      dyz     :     0.004859
      dx2y2   :     0.008649
      dxy     :     0.007977

  9 B s       :     3.483939  s :     3.483939
      pz      :     0.480436  p :     1.382141
      px      :     0.589935
      py      :     0.311771
      dz2     :     0.005707  d :     0.022100
      dxz     :     0.005019
      dyz     :     0.004574
      dx2y2   :     0.004273
      dxy     :     0.002528

 10 B s       :     3.381805  s :     3.381805
      pz      :     0.579612  p :     1.604550
      px      :     0.567660
      py      :     0.457278
      dz2     :     0.004448  d :     0.032289
      dxz     :     0.008882
      dyz     :     0.004871
      dx2y2   :     0.006830
      dxy     :     0.007257

 11 B s       :     3.691800  s :     3.691800
      pz      :     0.206557  p :     1.109703
      px      :     0.399503
      py      :     0.503643
      dz2     :     0.001161  d :     0.011891
      dxz     :     0.002208
      dyz     :     0.000579
      dx2y2   :     0.002669
      dxy     :     0.005274



                     *******************************
                     * LOEWDIN POPULATION ANALYSIS *
                     *******************************

----------------------
LOEWDIN ATOMIC CHARGES
----------------------
   0 B :    0.086281
   1 B :    0.044247
   2 B :    0.130607
   3 B :    0.028339
   4 B :   -0.317914
   5 B :    0.095113
   6 B :    0.078247
   7 B :   -0.190124
   8 B :   -0.131957
   9 B :    0.095654
  10 B :   -0.056742
  11 B :    0.138249

-------------------------------
LOEWDIN REDUCED ORBITAL CHARGES
-------------------------------
  0 B s       :     3.080682  s :     3.080682
      pz      :     0.498001  p :     1.785171
      px      :     0.633159
      py      :     0.654011
      dz2     :     0.005797  d :     0.047865
      dxz     :     0.008656
      dyz     :     0.008731
      dx2y2   :     0.010981
      dxy     :     0.013700

  1 B s       :     3.278172  s :     3.278172
      pz      :     0.417295  p :     1.638368
      px      :     0.730807
      py      :     0.490267
      dz2     :     0.004959  d :     0.039213
      dxz     :     0.008107
      dyz     :     0.002294
      dx2y2   :     0.010672
      dxy     :     0.013181

  2 B s       :     3.380876  s :     3.380876
      pz      :     0.819270  p :     1.445770
      px      :     0.281728
      py      :     0.344772
      dz2     :     0.015819  d :     0.042746
      dxz     :     0.013390
      dyz     :     0.008310
      dx2y2   :     0.002052
      dxy     :     0.003175

  3 B s       :     3.078029  s :     3.078029
      pz      :     0.501047  p :     1.847103
      px      :     0.717727
      py      :     0.628328
      dz2     :     0.006018  d :     0.046529
      dxz     :     0.008635
      dyz     :     0.007396
      dx2y2   :     0.009026
      dxy     :     0.015453

  4 B s       :     2.806791  s :     2.806791
      pz      :     0.958619  p :     2.397592
      px      :     0.744532
      py      :     0.694441
      dz2     :     0.033164  d :     0.113531
      dxz     :     0.029716
      dyz     :     0.018277
      dx2y2   :     0.010563
      dxy     :     0.021810

  5 B s       :     3.131424  s :     3.131424
      pz      :     0.590698  p :     1.715511
      px      :     0.595064
      py      :     0.529748
      dz2     :     0.006658  d :     0.057952
      dxz     :     0.011594
      dyz     :     0.014500
      dx2y2   :     0.016531
      dxy     :     0.008669

  6 B s       :     3.249740  s :     3.249740
      pz      :     0.442153  p :     1.627127
      px      :     0.686526
      py      :     0.498447
      dz2     :     0.006005  d :     0.044887
      dxz     :     0.006715
      dyz     :     0.005716
      dx2y2   :     0.005986
      dxy     :     0.020465

  7 B s       :     2.769390  s :     2.769390
      pz      :     0.884449  p :     2.301902
      px      :     0.792787
      py      :     0.624666
      dz2     :     0.030969  d :     0.118831
      dxz     :     0.033242
      dyz     :     0.022391
      dx2y2   :     0.015795
      dxy     :     0.016435

  8 B s       :     3.045540  s :     3.045540
      pz      :     0.545951  p :     2.023226
      px      :     0.833050
      py      :     0.644225
      dz2     :     0.006838  d :     0.063191
      dxz     :     0.003857
      dyz     :     0.008629
      dx2y2   :     0.019891
      dxy     :     0.023976

  9 B s       :     3.140843  s :     3.140843
      pz      :     0.629937  p :     1.707244
      px      :     0.712042
      py      :     0.365265
      dz2     :     0.014507  d :     0.056259
      dxz     :     0.012031
      dyz     :     0.012522
      dx2y2   :     0.012694
      dxy     :     0.004505

 10 B s       :     2.993358  s :     2.993358
      pz      :     0.702002  p :     1.985955
      px      :     0.734122
      py      :     0.549830
      dz2     :     0.008772  d :     0.077430
      dxz     :     0.020363
      dyz     :     0.014966
      dx2y2   :     0.019588
      dxy     :     0.013740

 11 B s       :     3.473905  s :     3.473905
      pz      :     0.224495  p :     1.363863
      px      :     0.542711
      py      :     0.596657
      dz2     :     0.002851  d :     0.023984
      dxz     :     0.003633
      dyz     :     0.000981
      dx2y2   :     0.003889
      dxy     :     0.012630



                      *****************************
                      * MAYER POPULATION ANALYSIS *
                      *****************************

  NA   - Mulliken gross atomic population
  ZA   - Total nuclear charge
  QA   - Mulliken gross atomic charge
  VA   - Mayer's total valence
  BVA  - Mayer's bonded valence
  FA   - Mayer's free valence

  ATOM       NA         ZA         QA         VA         BVA        FA
  0 B      4.9960     5.0000     0.0040     3.0610     3.0610     0.0000
  1 B      4.9902     5.0000     0.0098     2.6406     2.6406     0.0000
  2 B      4.9804     5.0000     0.0196     1.7637     1.7637     0.0000
  3 B      5.2252     5.0000    -0.2252     3.0496     3.0496    -0.0000
  4 B      5.0050     5.0000    -0.0050     3.1717     3.1717    -0.0000
  5 B      4.9496     5.0000     0.0504     2.7962     2.7962     0.0000
  6 B      4.9758     5.0000     0.0242     2.5445     2.5445     0.0000
  7 B      5.1705     5.0000    -0.1705     3.3312     3.3312    -0.0000
  8 B      4.9870     5.0000     0.0130     3.0989     3.0989     0.0000
  9 B      4.8882     5.0000     0.1118     2.7188     2.7188     0.0000
 10 B      5.0186     5.0000    -0.0186     3.0887     3.0887    -0.0000
 11 B      4.8134     5.0000     0.1866     2.1338     2.1338     0.0000

  Mayer bond orders larger than 0.100000
B(  0-B ,  1-B ) :   0.4613 B(  0-B ,  3-B ) :   0.4574 B(  0-B ,  4-B ) :   0.2115 
B(  0-B ,  6-B ) :   0.1183 B(  0-B ,  7-B ) :   0.1707 B(  0-B ,  8-B ) :   1.1339 
B(  0-B ,  9-B ) :   0.1241 B(  0-B , 10-B ) :   0.1723 B(  0-B , 11-B ) :   0.1040 
B(  1-B ,  3-B ) :   0.4003 B(  1-B ,  6-B ) :   0.1293 B(  1-B ,  8-B ) :   1.1147 
B(  1-B , 11-B ) :   0.2503 B(  2-B ,  3-B ) :   0.2846 B(  2-B ,  4-B ) :   0.7636 
B(  2-B ,  6-B ) :   0.1985 B(  2-B , 11-B ) :   0.1153 B(  3-B ,  4-B ) :   0.5028 
B(  3-B ,  6-B ) :   0.2005 B(  3-B ,  8-B ) :   0.4305 B(  3-B , 11-B ) :   0.5863 
B(  4-B ,  5-B ) :   0.2901 B(  4-B ,  6-B ) :   0.5253 B(  4-B ,  7-B ) :   0.6542 
B(  5-B ,  7-B ) :   0.5448 B(  5-B ,  9-B ) :   0.5532 B(  5-B , 10-B ) :   1.0709 
B(  6-B ,  7-B ) :   0.4351 B(  6-B , 11-B ) :   0.6927 B(  7-B ,  9-B ) :   0.8214 
B(  7-B , 10-B ) :   0.4895 B(  9-B , 10-B ) :   1.0083 

-------
TIMINGS
-------

Total SCF time: 0 days 0 hours 0 min 21 sec 

Total time                  ....      21.968 sec
Sum of individual times     ....      21.082 sec  ( 96.0%)

SCF preparation             ....       0.557 sec  (  2.5%)
Fock matrix formation       ....      16.121 sec  ( 73.4%)
  Startup                   ....       0.029 sec  (  0.2% of F)
  Split-RI-J                ....       4.754 sec  ( 29.5% of F)
  XC integration            ....      10.087 sec  ( 62.6% of F)
    XC Preparation          ....       0.000 sec  (  0.0% of XC)
    Basis function eval.    ....       1.702 sec  ( 16.9% of XC)
    Density eval.           ....       1.131 sec  ( 11.2% of XC)
    XC-Functional eval.     ....       0.243 sec  (  2.4% of XC)
    XC-Potential eval.      ....       1.263 sec  ( 12.5% of XC)
Diagonalization             ....       0.000 sec  (  0.0%)
Density matrix formation    ....       0.715 sec  (  3.3%)
Total Energy calculation    ....       0.364 sec  (  1.7%)
Population analysis         ....       0.171 sec  (  0.8%)
Orbital Transformation      ....       0.294 sec  (  1.3%)
Orbital Orthonormalization  ....       0.000 sec  (  0.0%)
DIIS solution               ....       1.085 sec  (  4.9%)
SOSCF solution              ....       1.774 sec  (  8.1%)
Finished LeanSCF after  22.0 sec

Maximum memory used throughout the entire LEANSCF-calculation: 10.0 MB


-------------------------------------------------------------------------------
                          DFT DISPERSION CORRECTION                            
                                                                               
                              DFTD3 V3.1  Rev 1                                
                          USING Becke-Johnson damping                          
-------------------------------------------------------------------------------
The BP86 functional is recognized
Active option DFTDOPT                   ...         4   

molecular C6(AA) [au] = 8438.055698 


            DFT-D V3
 parameters
 s6 scaling factor         :     1.0000 
 a1 scaling factor         :     0.3946 
 s8 scaling factor         :     3.2822 
 a2 scaling factor         :     4.8516 
 ad hoc parameters k1-k3   :    16.0000     1.3333    -4.0000 

 Edisp/kcal,au: -33.269678521472  -0.053018601866 
 E6   /kcal   :  -9.670273542 
 E8   /kcal   : -23.599404980 
 % E8         :  70.933673028 

-------------------------   ----------------
Dispersion correction           -0.053018602
-------------------------   ----------------


-------------------------   --------------------
FINAL SINGLE POINT ENERGY      -296.948440935707
-------------------------   --------------------



           ************************************************************
           *        Program running with 8 parallel MPI-processes     *
           *              working on a common directory               *
           ************************************************************
------------------------------------------------------------------------------
                         ORCA SCF GRADIENT CALCULATION
------------------------------------------------------------------------------

Nuc. rep. gradient        (SHARK) ... done (  0.0 sec)
HCore & Overlap gradient  (SHARK) ... done (  0.1 sec)
Split-RIJ-J gradient      (SHARK) ... done (  0.4 sec)
XC gradient                       ... done (  0.9 sec)
Dispersion correction             ... done (  0.1 sec)

-------------------
DISPERSION GRADIENT
-------------------

   1   B   :   -0.001003691    0.000979125   -0.000839286
   2   B   :   -0.000383692    0.001243202   -0.000114483
   3   B   :    0.000651398   -0.000255306   -0.001522151
   4   B   :   -0.000533592   -0.000484918    0.000888082
   5   B   :   -0.000848150   -0.000516186   -0.000106691
   6   B   :   -0.000883936    0.000563421    0.001396213
   7   B   :   -0.001497731    0.001532628   -0.000249400
   8   B   :    0.002984020    0.000041555    0.001484889
   9   B   :    0.000016867    0.000743449    0.000060181
  10   B   :    0.002625181   -0.000798623    0.000319140
  11   B   :   -0.002915080   -0.001572965   -0.000531283
  12   B   :    0.001788407   -0.001475382   -0.000785210

Difference to translation invariance:
           :    0.0000000000    0.0000000000    0.0000000000

Difference to rotation invariance:
           :   -0.0000000000   -0.0000000000    0.0000000000

Norm of the Dispersion gradient    ...    0.0073304718
RMS gradient                       ...    0.0012217453
MAX gradient                       ...    0.0029840197

------------------
CARTESIAN GRADIENT
------------------

   1   B   :    0.044434054    0.004488076    0.018005541
   2   B   :   -0.040057223    0.017739747    0.019140655
   3   B   :    0.015772720   -0.006099426   -0.009676504
   4   B   :   -0.017226609   -0.005228419   -0.043050423
   5   B   :    0.027374041    0.009838326   -0.014380702
   6   B   :    0.049251318   -0.045451217   -0.024729828
   7   B   :   -0.010238355   -0.059684850    0.001086855
   8   B   :    0.009428384   -0.007751225   -0.001951080
   9   B   :    0.012613420    0.061977560   -0.003174180
  10   B   :   -0.061094009    0.022473761    0.059738507
  11   B   :    0.028913485    0.012910253   -0.001900217
  12   B   :   -0.059171227   -0.005212586    0.000891377

Difference to translation invariance:
           :   -0.0000000000    0.0000000000    0.0000000000

Difference to rotation invariance:
           :    0.0000451679    0.0000126356   -0.0000427306

Norm of the Cartesian gradient     ...    0.1830043650
RMS gradient                       ...    0.0305007275
MAX gradient                       ...    0.0619775602

-------
TIMINGS
-------

Total SCF gradient time     ....        1.436 sec

Densities                   ....       0.001 sec  (  0.1%)
One electron gradient       ....       0.058 sec  (  4.0%)
RI-J Coulomb gradient       ....       0.398 sec  ( 27.7%)
XC gradient                 ....       0.914 sec  ( 63.7%)

Maximum memory used throughout the entire SCFGRAD-calculation: 29.6 MB
------------------------------------------------------------------------------
                         ORCA GEOMETRY RELAXATION STEP
------------------------------------------------------------------------------

Reading the OPT-File                    .... done
Getting information on internals        .... done
Copying old internal coords+grads       .... done
Making the new internal coordinates     .... (2022 redundants) done
Validating the new internal coordinates .... (2022 redundants) done
Calculating the B-matrix                .... done
Calculating the G,G- and P matrices     .... done
Transforming gradient to internals      .... done
Projecting the internal gradient        .... done
Number of atoms                         ....  12
Number of internal coordinates          .... 162
Current Energy                          ....  -296.948440936 Eh
Current gradient norm                   ....     0.183004365 Eh/bohr
Maximum allowed component of the step   ....  0.300
Current trust radius                    ....  0.300
Evaluating the initial hessian          ....  (Almloef) done
Projecting the Hessian                  .... done
Forming the augmented Hessian           .... done
Diagonalizing the augmented Hessian     .... done
Last element of RFO vector              ....  0.794702415
Lowest eigenvalues of augmented Hessian:
 -0.105479418  0.015124850  0.017264659  0.019405635  0.020890253
Length of the computed step             ....  0.763806959
Warning: the length of the step is outside the trust region - taking restricted step instead
The input lambda is                     ....     0.014119
   iter:   5  x=   -0.051531  g=   92.448079 f(x)=     2.733652
   iter:  10  x=   -0.373653  g=    0.545505 f(x)=     0.023578
   iter:  15  x=   -0.381983  g=    0.382297 f(x)=    -0.000000
The output lambda is                    ....    -0.381983 (15 iterations)
The final length of the internal step   ....  0.300000000
Converting the step to Cartesian space:
 Initial RMS(Int)=    0.0235702260
Transforming coordinates:
 Iter   0:  RMS(Cart)=    0.0507328897 RMS(Int)=    0.0235530274
done
Storing new coordinates                 .... done

                                .--------------------.
          ----------------------|Geometry convergence|-------------------------
          Item                value                   Tolerance       Converged
          ---------------------------------------------------------------------
          RMS gradient        0.0113978672            0.0001000000      NO
          MAX gradient        0.0490970212            0.0003000000      NO
          RMS step            0.0235702260            0.0020000000      NO
          MAX step            0.1036435474            0.0040000000      NO
          -------------------------------------------------------------------------
          ........................................................
          Max(Bonds)      0.0548      Max(Angles)    1.27
          Max(Dihed)        1.32      Max(Improp)    0.00
          ---------------------------------------------------------------------

The optimization has not yet converged - more geometry cycles are needed


    ---------------------------------------------------------------------------
                         Redundant Internal Coordinates
                            (Angstroem and degrees)

        Definition                    Value    dE/dq     Step     New-Value
    ----------------------------------------------------------------------------
     1. B(B   3,B   1)                2.4951  0.031749 -0.0396    2.4555   
     2. B(B   3,B   0)                2.2558  0.029339 -0.0347    2.2210   
     3. B(B   4,B   2)                1.7000  0.013152 -0.0107    1.6893   
     4. B(B   4,B   3)                2.0773  0.034140 -0.0383    2.0390   
     5. B(B   4,B   0)                2.5700  0.016491 -0.0226    2.5474   
     6. B(B   6,B   4)                1.9847  0.049097 -0.0548    1.9298   
     7. B(B   7,B   5)                1.9681  0.035850 -0.0368    1.9313   
     8. B(B   7,B   4)                1.7335  0.021774 -0.0199    1.7136   
     9. B(B   7,B   0)                2.7538  0.011229 -0.0151    2.7387   
    10. B(B   8,B   1)                1.7315  0.028862 -0.0270    1.7046   
    11. B(B   8,B   0)                1.7322  0.037360 -0.0351    1.6970   
    12. B(B   8,B   3)                2.6322  0.026077 -0.0327    2.5995   
    13. B(B   9,B   7)                1.8302  0.043784 -0.0408    1.7894   
    14. B(B  10,B   9)                1.8501  0.039588 -0.0403    1.8098   
    15. B(B  10,B   7)                1.9073  0.005972 -0.0072    1.9001   
    16. B(B  10,B   5)                1.7586  0.029797 -0.0288    1.7298   
    17. B(B  10,B   0)                2.9154  0.009531 -0.0132    2.9022   
    18. B(B  11,B   3)                2.2639  0.043081 -0.0545    2.2094   
    19. B(B  11,B   6)                2.2058  0.034432 -0.0434    2.1623   
    20. A(B   4,B   0,B   7)           37.81  0.002820   -0.19     37.61   
    21. A(B   4,B   0,B   8)          131.87 -0.001807    0.07    131.94   
    22. A(B   7,B   0,B   8)          140.36  0.000371   -0.10    140.26   
    23. A(B   8,B   0,B  10)          151.93  0.001368   -0.15    151.78   
    24. A(B   3,B   0,B  10)          112.61  0.005886   -0.51    112.10   
    25. A(B   7,B   0,B  10)           39.19 -0.000167    0.05     39.24   
    26. A(B   3,B   0,B   4)           50.48  0.004024   -0.42     50.07   
    27. A(B   3,B   0,B   7)           73.87  0.006130   -0.56     73.31   
    28. A(B   3,B   0,B   8)           81.46 -0.005779    0.48     81.94   
    29. A(B   4,B   0,B  10)           67.45  0.001879   -0.08     67.37   
    30. A(B   3,B   1,B   8)           74.60 -0.003407    0.32     74.92   
    31. A(B   8,B   3,B  11)          119.52  0.010626   -1.24    118.28   
    32. A(B   4,B   3,B  11)           98.44 -0.001597    0.15     98.59   
    33. A(B   0,B   3,B   4)           72.62 -0.006333    0.67     73.30   
    34. A(B   0,B   3,B   1)           70.82  0.006077   -0.38     70.44   
    35. A(B   1,B   3,B  11)           81.47  0.008014   -1.11     80.37   
    36. A(B   0,B   3,B  11)          126.10  0.008804   -1.03    125.06   
    37. A(B   4,B   3,B   8)          113.18 -0.001823    0.35    113.53   
    38. A(B   1,B   3,B   4)          133.79  0.000516    0.13    133.92   
    39. A(B   1,B   3,B   8)           39.36  0.002165   -0.07     39.28   
    40. A(B   0,B   3,B   8)           40.60  0.004546   -0.32     40.28   
    41. A(B   2,B   4,B   3)           85.42  0.004821   -0.58     84.84   
    42. A(B   0,B   4,B   2)           98.79  0.001458   -0.16     98.63   
    43. A(B   6,B   4,B   7)           72.65  0.010354   -1.14     71.51   
    44. A(B   0,B   4,B   6)          119.78  0.008504   -1.01    118.77   
    45. A(B   0,B   4,B   3)           56.90  0.002309   -0.26     56.64   
    46. A(B   3,B   4,B   6)           83.16  0.002142   -0.30     82.86   
    47. A(B   3,B   4,B   7)          105.31  0.000081   -0.00    105.30   
    48. A(B   2,B   4,B   6)          122.86 -0.004602    0.50    123.35   
    49. A(B   2,B   4,B   7)          162.73 -0.007460    0.86    163.59   
    50. A(B   0,B   4,B   7)           76.85 -0.003656    0.40     77.25   
    51. A(B   7,B   5,B  10)           61.26 -0.009252    0.96     62.23   
    52. A(B   4,B   6,B  11)          103.32 -0.004371    0.43    103.75   
    53. A(B   4,B   7,B   5)           80.40 -0.000511   -0.04     80.36   
    54. A(B   9,B   7,B  10)           59.30  0.005278   -0.62     58.67   
    55. A(B   5,B   7,B  10)           53.94  0.003072   -0.27     53.68   
    56. A(B   4,B   7,B  10)          114.23 -0.000619    0.02    114.25   
    57. A(B   5,B   7,B   9)          111.81  0.007644   -0.79    111.02   
    58. A(B   0,B   7,B  10)           74.98 -0.000492    0.05     75.03   
    59. A(B   0,B   7,B   9)           78.13 -0.000647    0.07     78.20   
    60. A(B   0,B   7,B   5)           96.50  0.004007   -0.52     95.98   
    61. A(B   4,B   7,B   9)          142.78 -0.000688   -0.03    142.75   
    62. A(B   0,B   7,B   4)           65.34  0.000836   -0.21     65.13   
    63. A(B   0,B   8,B   3)           57.94  0.001233   -0.16     57.78   
    64. A(B   0,B   8,B   1)          105.64  0.002430   -0.36    105.28   
    65. A(B   1,B   8,B   3)           66.04  0.001243   -0.25     65.80   
    66. A(B   7,B   9,B  10)           62.43 -0.012509    1.27     63.70   
    67. A(B   5,B  10,B   7)           64.79  0.006180   -0.70     64.10   
    68. A(B   0,B  10,B   9)           73.51  0.001304   -0.09     73.41   
    69. A(B   0,B  10,B   7)           65.83  0.000659   -0.10     65.73   
    70. A(B   0,B  10,B   5)           96.11  0.006718   -0.87     95.24   
    71. A(B   7,B  10,B   9)           58.27  0.007231   -0.65     57.63   
    72. A(B   5,B  10,B   9)          121.33  0.012352   -1.20    120.13   
[...]
      px      :     0.715556
      py      :     0.671347
      dz2     :     0.016079  d :     0.072050
      dxz     :     0.013681
      dyz     :     0.012192
      dx2y2   :     0.015867
      dxy     :     0.014232

  8 B s       :     3.318665  s :     3.318665
      pz      :     0.574720  p :     1.899449
      px      :     0.748681
      py      :     0.576048
      dz2     :     0.005161  d :     0.043666
      dxz     :     0.003147
      dyz     :     0.010863
      dx2y2   :     0.011808
      dxy     :     0.012688

  9 B s       :     2.504026  s :     2.504026
      pz      :     0.839506  p :     2.297260
      px      :     0.695091
      py      :     0.762662
      dz2     :     0.013648  d :     0.087823
      dxz     :     0.014793
      dyz     :     0.018553
      dx2y2   :     0.019454
      dxy     :     0.021374

 10 B s       :     2.936726  s :     2.936726
      pz      :     0.669706  p :     2.066067
      px      :     0.708654
      py      :     0.687706
      dz2     :     0.007649  d :     0.051724
      dxz     :     0.008850
      dyz     :     0.009165
      dx2y2   :     0.015830
      dxy     :     0.010230

 11 B s       :     2.330233  s :     2.330233
      pz      :     0.736682  p :     2.078267
      px      :     0.612984
      py      :     0.728602
      dz2     :     0.011753  d :     0.072053
      dxz     :     0.016584
      dyz     :     0.012714
      dx2y2   :     0.014331
      dxy     :     0.016671



                     *******************************
                     * LOEWDIN POPULATION ANALYSIS *
                     *******************************

----------------------
LOEWDIN ATOMIC CHARGES
----------------------
   0 B :    0.012699
   1 B :    0.010507
   2 B :    0.011552
   3 B :    0.013082
   4 B :    0.011842
   5 B :    0.012687
   6 B :   -0.005855
   7 B :   -0.041350
   8 B :    0.012994
   9 B :   -0.007420
  10 B :    0.010682
  11 B :   -0.041419

-------------------------------
LOEWDIN REDUCED ORBITAL CHARGES
-------------------------------
  0 B s       :     2.783278  s :     2.783278
      pz      :     0.566971  p :     2.096205
      px      :     0.658548
      py      :     0.870686
      dz2     :     0.013356  d :     0.107819
      dxz     :     0.016081
      dyz     :     0.012637
      dx2y2   :     0.033769
      dxy     :     0.031977

  1 B s       :     2.684354  s :     2.684354
      pz      :     0.719646  p :     2.172189
      px      :     0.610713
      py      :     0.841830
      dz2     :     0.017358  d :     0.132950
      dxz     :     0.019607
      dyz     :     0.042721
      dx2y2   :     0.030778
      dxy     :     0.022486

  2 B s       :     2.783551  s :     2.783551
      pz      :     0.624710  p :     2.097146
      px      :     0.850206
      py      :     0.622230
      dz2     :     0.028502  d :     0.107750
      dxz     :     0.030771
      dyz     :     0.025572
      dx2y2   :     0.010616
      dxy     :     0.012289

  3 B s       :     2.684705  s :     2.684705
      pz      :     0.844784  p :     2.169028
      px      :     0.611098
      py      :     0.713146
      dz2     :     0.033545  d :     0.133185
      dxz     :     0.023131
      dyz     :     0.041460
      dx2y2   :     0.016153
      dxy     :     0.018896

  4 B s       :     2.783628  s :     2.783628
      pz      :     0.855560  p :     2.096787
      px      :     0.658227
      py      :     0.582999
      dz2     :     0.028516  d :     0.107742
      dxz     :     0.031797
      dyz     :     0.012313
      dx2y2   :     0.018860
      dxy     :     0.016257

  5 B s       :     2.684531  s :     2.684531
      pz      :     0.830624  p :     2.169557
      px      :     0.736780
      py      :     0.602153
      dz2     :     0.036264  d :     0.133225
      dxz     :     0.029125
      dyz     :     0.026227
      dx2y2   :     0.025867
      dxy     :     0.015742

  6 B s       :     2.543273  s :     2.543273
      pz      :     0.835052  p :     2.222279
      px      :     0.757177
      py      :     0.630050
      dz2     :     0.054492  d :     0.240303
      dxz     :     0.062368
      dyz     :     0.045703
      dx2y2   :     0.040121
      dxy     :     0.037619

  7 B s       :     2.606249  s :     2.606249
      pz      :     0.742903  p :     2.256303
      px      :     0.773343
      py      :     0.740057
      dz2     :     0.042699  d :     0.178797
      dxz     :     0.035144
      dyz     :     0.022591
      dx2y2   :     0.042347
      dxy     :     0.036017

  8 B s       :     2.783451  s :     2.783451
      pz      :     0.622512  p :     2.095788
      px      :     0.845587
      py      :     0.627689
      dz2     :     0.013033  d :     0.107767
      dxz     :     0.011706
      dyz     :     0.024470
      dx2y2   :     0.027501
      dxy     :     0.031057

  9 B s       :     2.542598  s :     2.542598
      pz      :     0.628604  p :     2.222888
      px      :     0.754884
      py      :     0.839400
      dz2     :     0.034219  d :     0.241934
      dxz     :     0.036291
      dyz     :     0.045985
      dx2y2   :     0.061471
      dxy     :     0.063967

 10 B s       :     2.684245  s :     2.684245
      pz      :     0.621669  p :     2.172011
      px      :     0.733757
      py      :     0.816585
      dz2     :     0.019934  d :     0.133062
      dxz     :     0.016603
      dyz     :     0.026083
      dx2y2   :     0.042445
      dxy     :     0.027997

 11 B s       :     2.606209  s :     2.606209
      pz      :     0.765798  p :     2.256418
      px      :     0.722276
      py      :     0.768344
      dz2     :     0.029572  d :     0.178793
      dxz     :     0.040502
      dyz     :     0.038358
      dx2y2   :     0.030437
      dxy     :     0.039923



                      *****************************
                      * MAYER POPULATION ANALYSIS *
                      *****************************

  NA   - Mulliken gross atomic population
  ZA   - Total nuclear charge
  QA   - Mulliken gross atomic charge
  VA   - Mayer's total valence
  BVA  - Mayer's bonded valence
  FA   - Mayer's free valence

  ATOM       NA         ZA         QA         VA         BVA        FA
  0 B      5.2608     5.0000    -0.2608     3.4787     3.4787     0.0000
  1 B      5.0530     5.0000    -0.0530     4.0810     4.0810     0.0000
  2 B      5.2604     5.0000    -0.2604     3.4767     3.4767     0.0000
  3 B      5.0640     5.0000    -0.0640     4.0902     4.0902     0.0000
  4 B      5.2615     5.0000    -0.2615     3.4772     3.4772    -0.0000
  5 B      5.0622     5.0000    -0.0622     4.0899     4.0899     0.0000
  6 B      4.8716     5.0000     0.1284     3.7824     3.7824     0.0000
  7 B      4.4804     5.0000     0.5196     3.1303     3.1303     0.0000
  8 B      5.2618     5.0000    -0.2618     3.4791     3.4791     0.0000
  9 B      4.8891     5.0000     0.1109     3.8006     3.8006     0.0000
 10 B      5.0545     5.0000    -0.0545     4.0830     4.0830     0.0000
 11 B      4.4806     5.0000     0.5194     3.1317     3.1317     0.0000

  Mayer bond orders larger than 0.100000
B(  0-B ,  1-B ) :   0.1373 B(  0-B ,  8-B ) :   1.4102 B(  0-B ,  9-B ) :   0.3654 
B(  0-B , 10-B ) :   1.2633 B(  1-B ,  3-B ) :   1.0887 B(  1-B ,  6-B ) :   0.1310 
B(  1-B ,  7-B ) :   0.1774 B(  1-B ,  8-B ) :   1.2624 B(  1-B ,  9-B ) :   0.6181 
B(  1-B , 10-B ) :   0.1369 B(  1-B , 11-B ) :   0.3818 B(  2-B ,  3-B ) :   1.2656 
B(  2-B ,  4-B ) :   1.4094 B(  2-B ,  5-B ) :   0.1410 B(  2-B ,  6-B ) :   0.3581 
B(  3-B ,  4-B ) :   0.1416 B(  3-B ,  5-B ) :   0.1411 B(  3-B ,  6-B ) :   0.6126 
B(  3-B ,  7-B ) :   0.1754 B(  3-B ,  9-B ) :   0.1378 B(  3-B , 11-B ) :   0.3739 
B(  4-B ,  5-B ) :   1.2646 B(  4-B ,  6-B ) :   0.3579 B(  5-B ,  6-B ) :   0.6140 
B(  5-B ,  7-B ) :   0.3752 B(  5-B ,  9-B ) :   0.1358 B(  5-B , 10-B ) :   1.0890 
B(  5-B , 11-B ) :   0.1762 B(  6-B ,  7-B ) :   0.4794 B(  6-B ,  9-B ) :   0.5127 
B(  6-B , 10-B ) :   0.1332 B(  6-B , 11-B ) :   0.4800 B(  7-B ,  9-B ) :   0.4711 
B(  7-B , 10-B ) :   0.3801 B(  7-B , 11-B ) :   0.8741 B(  8-B ,  9-B ) :   0.3648 
B(  8-B , 10-B ) :   0.1381 B(  9-B , 10-B ) :   0.6179 B(  9-B , 11-B ) :   0.4715 
B( 10-B , 11-B ) :   0.1767 

-------
TIMINGS
-------

Total SCF time: 0 days 0 hours 0 min 3 sec 

Total time                  ....       3.093 sec
Sum of individual times     ....       2.718 sec  ( 87.9%)

SCF preparation             ....       0.589 sec  ( 19.1%)
Fock matrix formation       ....       1.542 sec  ( 49.8%)
  Startup                   ....       0.006 sec  (  0.4% of F)
  Split-RI-J                ....       0.534 sec  ( 34.6% of F)
  XC integration            ....       1.211 sec  ( 78.6% of F)
    XC Preparation          ....       0.000 sec  (  0.0% of XC)
    Basis function eval.    ....       0.234 sec  ( 19.3% of XC)
    Density eval.           ....       0.191 sec  ( 15.8% of XC)
    XC-Functional eval.     ....       0.028 sec  (  2.3% of XC)
    XC-Potential eval.      ....       0.242 sec  ( 19.9% of XC)
Diagonalization             ....       0.000 sec  (  0.0%)
Density matrix formation    ....       0.017 sec  (  0.5%)
Total Energy calculation    ....       0.040 sec  (  1.3%)
Population analysis         ....       0.381 sec  ( 12.3%)
Orbital Transformation      ....       0.015 sec  (  0.5%)
Orbital Orthonormalization  ....       0.000 sec  (  0.0%)
DIIS solution               ....       0.017 sec  (  0.6%)
SOSCF solution              ....       0.117 sec  (  3.8%)
Finished LeanSCF after   3.7 sec

Maximum memory used throughout the entire LEANSCF-calculation: 16.8 MB


-------------------------------------------------------------------------------
                          DFT DISPERSION CORRECTION                            
                                                                               
                              DFTD3 V3.1  Rev 1                                
                          USING Becke-Johnson damping                          
-------------------------------------------------------------------------------
The BP86 functional is recognized
Active option DFTDOPT                   ...         4   

molecular C6(AA) [au] = 4222.657487 


            DFT-D V3
 parameters
 s6 scaling factor         :     1.0000 
 a1 scaling factor         :     0.3946 
 s8 scaling factor         :     3.2822 
 a2 scaling factor         :     4.8516 
 ad hoc parameters k1-k3   :    16.0000     1.3333    -4.0000 

 Edisp/kcal,au: -22.473818277574  -0.035814305296 
 E6   /kcal   :  -6.410679171 
 E8   /kcal   : -16.063139107 
 % E8         :  71.474899852 

-------------------------   ----------------
Dispersion correction           -0.035814305
-------------------------   ----------------


-------------------------   --------------------
FINAL SINGLE POINT ENERGY      -297.699374687119
-------------------------   --------------------

                                *** OPTIMIZATION RUN DONE ***



           ************************************************************
           *        Program running with 8 parallel MPI-processes     *
           *              working on a common directory               *
           ************************************************************

------------------------------------------------------------------------------
                              ORCA PROPERTY CALCULATIONS
------------------------------------------------------------------------------

GBWName                                 ... random0_nn1.70.gbw
Number of atoms                         ...     12
Number of basis functions               ...    168
Max core memory                         ...   2500 MB

Electric properties:
Dipole moment                           ... YES
Quadrupole moment                       ...  NO
Static polarizability (Dipole/Dipole)   ...  NO
Static polarizability (Dipole/Quad.)    ...  NO
Static polarizability (Quad./Quad.)     ...  NO
Static polarizability (Velocity)        ...  NO
Static hyperpolarizability              ...  NO

Atomic electric properties:
Dipole moment                           ...  NO
Quadrupole moment                       ...  NO
Static polarizability                   ...  NO

Choice of electric origin               ... Center of mass
Position of electric origin             ...    -0.000000     0.000000    -0.000000

General magnetic properties:
Magnetizability                         ...  NO

EPR properties:
g-Tensor (aka g-matrix)                 ...  NO
Zero-Field splitting spin-orbit         ...  NO
Zero-field splitting spin-spin          ...  NO
Hyperfine couplings                     ...  NO (   0 nuclei)
Quadrupole couplings                    ...  NO (   0 nuclei)
Contact density                         ...  NO (   0 nuclei)

NMR properties:
Chemical shifts                         ...  NO (   0 nuclei)
Spin-rotation constants                 ...  NO (   0 nuclei)
Spin-spin couplings                     ...  NO (   0 nuclei,    0 pairs)

Choice of magnetic origin               ... GIAO
Position of magnetic origin             ...     0.000000     0.000000     0.000000

Properties with geometric perturbations:
SCF Hessian                             ...  NO
IR spectrum                             ...  NO
VCD spectrum                            ...  NO
X-ray spectroscopy properties:
SCF XES/XAS/RIXS spectra                ...  NO

SCF SOC stabilization energy            ...  NO
Diagonal Born-Oppenheimer correction    ...  NO

-------------
DIPOLE MOMENT
-------------

Method             : SCF
Type of density    : Electron Density
Multiplicity       :   1
Irrep              :   0
Energy             :  -297.6635603818234017 Eh
Basis              : AO
                                X                 Y                 Z
Electronic contribution:     -0.314258876      -0.258321786       0.226252040
Nuclear contribution   :     -0.000000000       0.000000000      -0.000000000
                        -----------------------------------------
Total Dipole Moment    :     -0.314258876      -0.258321786       0.226252040
                        -----------------------------------------
Magnitude (a.u.)       :      0.465487672
Magnitude (Debye)      :      1.183175633



--------------------
Rotational spectrum 
--------------------
 
Rotational constants in cm-1:             0.076243             0.054682             0.043355 
Rotational constants in MHz :          2285.718326          1639.327823          1299.752800 

Dipole components along the rotational axes: 
x,y,z [a.u.] :    -0.005117     0.000298     0.465459 
x,y,z [Debye]:    -0.013007     0.000758     1.183104 

 

Dipole moment calculation done in   0.3 sec 

Maximum memory used throughout the entire PROP-calculation: 12.2 MB

--------------------------------
SUGGESTED CITATIONS FOR THIS RUN
--------------------------------

Below you find a list of papers that are relevant to this ORCA run
We neither can nor want to force you to cite these papers, but we appreciate if you do
You receive ORCA, which is the product of decades of hard work by many enthusiastic individuals, for free
The only thing we kindly ask in return is that you cite our papers,
We deeply appreciate it, if you show your appreciation for ORCA by not just citing the generic ORCA reference.

Please note that relegating all ORCA citations to the supporting information does *not* help us.
SI sections are not indexed - citations you put there will not count into any citation statistics
But we need these citations in order to attract the funding resources that allow us to do what we are doing

Therefore, if you are a happy ORCA user, please consider citing a few of the papers listed below in the main body of your paper

In addition to the list printed below, the program has created the file random0_nn1.70.bibtex that contains the list in bibtex format
You can import this file easily into all common literature databanks and citation aid programs

It goes without saying that in many instances, there are alternative algorithms to achieve similar
results as the ones you have gotten from ORCA. It is, of course, also the case that in some instances
ORCA just re-implements algorithms worked out by others. We are fully aware of that and we are also
fully appreciative of our colleagues work. Hence this citation list should not be read as indicating
that the listed papers, which are focused on our own work, are the only ones worth citing. It simply
meant to make it easier for users to cite ORCA specific papers. It is not a substitute for doing your
own literature research and citing the relevant literature in a scientifically appropriate manner.

List of essential papers. We consider these as the minimum necessary citations

  1. Neese, F.
     Software update: the ORCA program system, version 6.0
     WIRES Comput. Molec. Sci. 2025 15(1), e70019
     doi.org/10.1002/wcms.70019

List of papers to cite with high priority. The work reported in these papers was absolutely
necessary for this run to complete.
Our perspective: the developers of density functionals and basis sets usually get cited in chemistry papers
Good! But without the algorithms to do something with them, the functionals or basis sets would not do anything.
Hence, in our opinion, the algorithm design and method developments papers are equally worthy of getting cited

  1. Neese, F.
     An improvement of the resolution of the identity approximation for the formation of the Coulomb matrix
     J. Comp. Chem. 2003 24(14), 1740-1747
     doi.org/10.1002/jcc.10318
  2. Grimme, S.; Antony, J.; Ehrlich, S.; Krieg, H.
     A consistent and accurate ab initio parametrization of density functional dispersion correction (DFT-D) for the 94 elements H-Pu
     J. Chem. Phys. 2010 132 , 154104
     doi.org/10.1063/1.3382344
  3. Grimme, S.; Ehrlich, S.; Goerigk, L.
     Effect of the damping function in dispersion corrected density functional theory
     J. Comput. Chem. 2011 32(7), 1456-1465
     doi.org/10.1002/jcc.21759
  4. Neese, F.
     The SHARK Integral Generation and Digestion System
     J. Comp. Chem. 2022 44(3), 381
     doi.org/10.1002/jcc.26942

List of suggested additional citations. These are papers that are important in the 'surrounding' of 
of this run, or papers that preceded the highly important papers. If you like your results we are grateful for a citation.

  1. Neese, F.
     The ORCA program system
     WIRES Comput. Molec. Sci. 2012 2(1), 73-78
     doi.org/10.1002/wcms.81
  2. Neese, F.
     Software update: the ORCA program system, version 4.0
     WIRES Comput. Molec. Sci. 2018 8(1), 1-6
     doi.org/10.1002/wcms.1327
  3. Neese, F.; Wennmohs, F.; Becker, U.; Riplinger, C.
     The ORCA quantum chemistry program package
     J. Chem. Phys. 2020 152(22), 224108
     doi.org/10.1063/5.0004608
  4. Neese, F.
     Software update: The ORCA program system—Version 5.0
     WIRES Comput. Molec. Sci. 2022 12(1), e1606
     doi.org/10.1002/wcms.1606

List of optional additional citations

  1. Neese, F.
     Approximate second-order SCF convergence for spin unrestricted wavefunctions
     Chem. Phys. Lett. 2000 325(1-3), 93-98
     doi.org/10.1016/s0009-2614(00)00662-x

Timings for individual modules:

Sum of individual times          ...     1579.470 sec (=  26.325 min)
Startup calculation              ...      190.570 sec (=   3.176 min)  12.1 %
SCF iterations                   ...     1115.940 sec (=  18.599 min)  70.7 %
Property calculations            ...        1.410 sec (=   0.024 min)   0.1 %
SCF Gradient evaluation          ...      270.188 sec (=   4.503 min)  17.1 %
Geometry relaxation              ...        1.362 sec (=   0.023 min)   0.1 %
                             ****ORCA TERMINATED NORMALLY****
TOTAL RUN TIME: 0 days 0 hours 27 minutes 54 seconds 492 msec
