
                                 *****************
                                 * O   R   C   A *
                                 *****************

                                            #,                                       
                                            ###                                      
                                            ####                                     
                                            #####                                    
                                            ######                                   
                                           ########,                                 
                                     ,,################,,,,,                         
                               ,,#################################,,                 
                          ,,##########################################,,             
                       ,#########################################, ''#####,          
                    ,#############################################,,   '####,        
                  ,##################################################,,,,####,       
                ,###########''''           ''''###############################       
              ,#####''   ,,,,##########,,,,          '''####'''          '####       
            ,##' ,,,,###########################,,,                        '##       
           ' ,,###''''                  '''############,,,                           
         ,,##''                                '''############,,,,        ,,,,,,###''
      ,#''                                            '''#######################'''  
     '                                                          ''''####''''         
             ,#######,   #######,   ,#######,      ##                                
            ,#'     '#,  ##    ##  ,#'     '#,    #''#        ,####,    ,#,          
            ##       ##  ##   ,#'  ##            #'  '#       #'       ,# #          
            ##       ##  #######   ##           ,######,      #####,      #          
            '#,     ,#'  ##    ##  '#,     ,#' ,#      #,     #,   #      #          
             '#######'   ##     ##  '#######'  #'      '#     '####' #    #          



                #########################################################
                #                        -***-                          #
                #          Department of theory and spectroscopy        #
                #                                                       #
                #                      Frank Neese                      #
                #                                                       #
                #     Directorship, Architecture, Infrastructure        #
                #                    SHARK, DRIVERS                     #
                #        Core code/Algorithms in most modules           #
                #                                                       #
                #        Max Planck Institute fuer Kohlenforschung      #
                #                Kaiser Wilhelm Platz 1                 #
                #                 D-45470 Muelheim/Ruhr                 #
                #                      Germany                          #
                #                                                       #
                #                  All rights reserved                  #
                #                        -***-                          #
                #########################################################


                         Program Version 6.1.1  -  RELEASE   -
                                (GIT: $487d211c$)
                          ($2025-11-21 10:33:24 +0100$)
                                                                         
                                  - NO-DMRG VERSION -                    
                                                                         


 With contributions from (in alphabetic order):
[Max-Planck-Institut fuer Kohlenforschung]                               
  Daniel Aravena         : Magnetic Suceptibility                        
  Michael Atanasov       : Ab Initio Ligand Field Theory (pilot matlab implementation)
  Alexander A. Auer      : GIAO ZORA, VPT2 properties, NMR spectrum      
  Ute Becker             : All parallelization in ORCA, NUMFREQ, NUMCALC 
  Giovanni Bistoni       : ED, misc. LED, open-shell LED, HFLD           
  Dmytro Bykov           : pre 5.0 version of the SCF Hessian            
  Marcos Casanova-Páez   : Triplet and SCS-CIS(D). UHF-(DLPNO)-IP/EA/STEOM-CCSD. UHF-CVS-IP/STEOM-CCSD   
  Vijay G. Chilkuri      : MRCI spin determinant printing, contributions to CSF-ICE 
  Pauline Colinet        : FMM embedding                                 
  Dipayan Datta          : RHF DLPNO-CCSD density                        
  Achintya Kumar Dutta   : EOM-CC, STEOM-CC                              
  Nicolas Foglia         : Exact transition moments, OPA infrastructure, MCD improvements    
  Dmitry Ganyushin       : Spin-Orbit,Spin-Spin,Magnetic field MRCI      
  Miquel Garcia-Rates    : C-PCM and meta-GGA Hessian, CCSD/C-PCM, Gaussian charge scheme 
  Tiago L. C. Gouveia    : GS-ROHF, GS-ROCIS                             
  Yang Guo               : DLPNO-NEVPT2, F12-NEVPT2, CIM, IAO-localization        
  Andreas Hansen         : Spin unrestricted coupled pair/coupled cluster methods 
  Ingolf Harden          : AUTO-CI MPn and infrastructure                
  Benjamin Helmich-Paris : MC-RPA, TRAH-(SCF,CASSCF), AVAS, COSX integrals, SCF dyn. polar., MC-PDFT, srDFT 
  Lee Huntington         : MR-EOM, pCC                                   
  Robert Izsak           : Overlap fitted RIJCOSX, COSX-SCS-MP3, EOM     
  Riya Kayal             : Wick's Theorem for AUTO-CI, AUTO-CI UHF-CCSDT 
  Emily Kempfer          : AUTO-CI RHF CISDT and CCSDT, approximate NEVPT4
  Christian Kollmar      : KDIIS, OOCD, Brueckner-CCSD(T), CCSD density, CASPT2, CASPT2-K, improved NEVPT2 
  Axel Koslowski         : Symmetry handling                             
  Simone Kossmann        : meta-GGA functionals, TD-DFT gradient, OOMP2, (MP2 Hessian; deprecated post 5.0) 
  Lucas Lang             : DCDCAS, Hyperfine gauge corrections, ICE-SOC+SSC
  Marvin Lechner         : AUTO-CI (C++ implementation), FIC-MRCC        
  Spencer Leger          : CASSCF response                               
  Dagmar Lenk            : GEPOL surface, SMD, ORCA-2-JSON               
  Dimitrios Liakos       : Extrapolation schemes; Compound Job, Property file
  Dimitrios Manganas     : Further ROCIS development; embedding schemes. LFT, Crystal Embedding 
  Dimitrios Pantazis     : SARC Basis sets                               
  Anastasios Papadopoulos: AUTO-CI, single reference methods and gradients 
  Taras Petrenko         : pre 6.0 DFT Hessian and TD-DFT gradient,  ECA, NRVS 
  Petra Pikulova         : Analytic Raman intensities                    
  Peter Pinski           : DLPNO-MP2, DLPNO-MP2 Gradient                 
  Shashank Vittal Rao    : ES-AILFT, MagRelax                            
  Christoph Reimann      : Effective Core Potentials                     
  Marius Retegan         : Local ZFS, SOC                                
  Christoph Riplinger    : Optimizer, TS searches, QM/MM, DLPNO-CCSD(T), (RO)-DLPNO pert. Triples 
  Michael Roemelt        : Original ROCIS implementation, recursive CI coupling coefficients
  Masaaki Saitow         : Open-shell DLPNO-CCSD energy and density      
  Barbara Sandhoefer     : DKH picture change effects                    
  Yorick L. A. Schmerwitz: GMF and freeze-and-release deltaSCF, NEB S-IDPP initial path                    
  Kantharuban Sivalingam : CASSCF convergence/infrastructure, NEVPT2, NEVPT3, NEVPT4(SD), FIC-MRCI and CEPA variants
  Bernardo de Souza      : ESD, SOC TD-DFT                               
  Georgi L. Stoychev     : AutoAux, RI-MP2 NMR, DLPNO-MP2 response, X2C  
  Van Anh Tran           : RI-MP2 g-tensors                              
  Willem Van den Heuvel  : Paramagnetic NMR                              
  Zikuan Wang            : NOTCH, Electric field optimization            
  Frank Wennmohs         : Technical directorship and infrastructure     
  Hang Xu                : AUTO-CI-Response properties                   
                                                                         
[FACCTs GmbH]                                                            
  Markus Bursch, Nicolas Foglia, Miquel Garcia-Rates, Ingolf Harden, Hagen Neugebauer, Anastasios Papadopoulos, 
  Christoph Riplinger, Bernardo de Souza, Georgi L. Stoychev                                                    
                                                                 
  APM, various basis sets, CI-OPT, improved COSX, DLPNO-Multilevel,           
  DOCKER, DRACO, updates on ESD, Fragmentator, GOAT, IRC, LR-CPCM, L-BFGS, MBIS, meta-GGA TD-DFT gradient, ML-optimized integration grids, 
  MM, NACMEs, nearIR, NEB, NEB-TS, NL-DFT gradient (VV10), 2- and 3-layer-ONIOM, interface openCOSMO-RS, QMMM,   
  Crystal-QMMM, RESP, rigid body optimization, SF, symmetry and pop. for TD-DFT, various functionals, SOLVATOR                                   
                                                                         
[Other institutions]                                                     
  V. Asgeirsson          : NEB                                           
  Christoph Bannwarth    : sTDA-DFT, sTD-DFT, PBEh-3c, B97-3c, D3        
  Giovanni Bistoni       : ETS/NOCV, ADLD/ADEX, COVALED                  
  Martin Brehm           : Molecular dynamics                            
  Ronald Cardenas        : ETS/NOCV                                      
  Martina Colucci        : COVALED                                       
  Sebastian Ehlert       : rSCAN, r2SCAN, r2SCAN-3c, D4, dhf basis sets  
  Marvin Friede          : D4 for Fr, Ra, Ac-Lr                          
  Lars Goerigk           : TD-DFT with DH, B97 family of functionals     
  Stefan Grimme          : VdW corrections, initial TS optimization, DFT functionals, gCP, sTDA/sTD-DF 
  Waldemar Hujo          : DFT-NL                                        
  H. Jonsson             : NEB                                           
  Holger Kruse           : gCP                                           
  Marcel Mueller         : wB97X-3c, vDZP basis set                      
  Hagen Neugebauer       : wr2SCAN, Native XTB                           
  Gianluca Regni         : ADLD/ADEX                                     
  Tobias Risthaus        : pre 6.0 range-separated hybrid DFT and stability analysis
  Lukas Wittmann         : regularized MP2, r2SCAN double-hybrids, wr2SCAN        
                                                                         
We gratefully acknowledge several colleagues who have allowed us to      
interface, adapt or use parts of their codes:                            
  Ed Valeev, F. Pavosevic, A. Kumar             : LibInt (2-el integral package), F12 methods 
  Garnet Chan, S. Sharma, J. Yang, R. Olivares  : DMRG                   
  Ulf Ekstrom                                   : XCFun DFT Library      
  Mihaly Kallay                                 : mrcc  (arbitrary order and MRCC methods)
  Frank Weinhold                                : gennbo (NPA and NBO analysis)           
  Simon Mueller                                 : openCOSMO-RS                            
  Christopher J. Cramer and Donald G. Truhlar   : smd solvation model                     
  S Lehtola, MJT Oliveira, MAL Marques          : LibXC Library                           
  Liviu Ungur et al                             : ANISO software                          


 Your calculation uses the libint2 library for the computation of 2-el integrals
 For citations please refer to: http://libint.valeyev.net

 Your ORCA version has been built with support for libXC version: 7.0.0
 For citations please refer to: https://libxc.gitlab.io

 This ORCA versions uses:
   CBLAS   interface :  Fast vector & matrix operations
   LAPACKE interface :  Fast linear algebra routines
   SCALAPACK package :  Parallel linear algebra routines
   Shared memory     :  Shared parallel matrices
   BLAS/LAPACK       :  OpenBLAS 0.3.29  USE64BITINT DYNAMIC_ARCH NO_AFFINITY Zen SINGLE_THREADED
        Core in use  :  Zen
   Copyright (c) 2011-2014, The OpenBLAS Project


  ***********************************
  * Starting time: Thu Apr 23 15:20:57 2026
  * Host name:     vmi3233575
  * Process ID:    1301558
  * Working dir.:  /root/b12_scan/jobs/hex_antiprism_nn2.50
  ***********************************

NOTE: MaxCore=2500 MB was set to SCF,MP2,MDCI,CIPSI,MRCI,RASCI and CIS
      => If you want to overwrite this, your respective input block should be placed after the MaxCore statement
Your calculation utilizes the atom-pairwise dispersion correction
with the Becke-Johnson damping scheme (D3BJ)


================================================================================

----- Orbital basis set information -----
Your calculation utilizes the basis: def2-SVP
   F. Weigend and R. Ahlrichs, Phys. Chem. Chem. Phys. 7, 3297 (2005).

----- AuxJ basis set information -----
Your calculation utilizes the auxiliary basis: def2/J
   H-Rn: F. Weigend, Phys. Chem. Chem. Phys. 8, 1057 (2006).
   Fr-Lr: K. Eichkorn, F. Weigend, O. Treutler, R. Ahlrichs; Theor. Chem. Acc. 97, 119 (1997).

================================================================================
                                        WARNINGS
                       Please study these warnings very carefully!
================================================================================


WARNING: Geometry Optimization
  ===> : Switching off AutoStart
         For restart on a previous wavefunction, please use MOREAD

================================================================================
                                       INPUT FILE
================================================================================
NAME = hex_antiprism_nn2.50.inp
|  1> ! BP86 def2-SVP def2/J RI Opt TightSCF D3BJ
|  2> ! SlowConv
|  3> 
|  4> %pal nprocs 8 end
|  5> %maxcore 2500
|  6> 
|  7> %geom
|  8>   MaxIter 300
|  9> end
| 10> 
| 11> * xyz 0 1
| 12> B      2.62367016     -0.00000000      1.04946806
| 13> B      1.31183508      2.27216501      1.04946806
| 14> B     -1.31183508      2.27216501      1.04946806
| 15> B     -2.62367016      0.00000000      1.04946806
| 16> B     -1.31183508     -2.27216501      1.04946806
| 17> B      1.31183508     -2.27216501      1.04946806
| 18> B      2.27216501      1.31183508     -1.04946806
| 19> B      0.00000000      2.62367016     -1.04946806
| 20> B     -2.27216501      1.31183508     -1.04946806
| 21> B     -2.27216501     -1.31183508     -1.04946806
| 22> B     -0.00000000     -2.62367016     -1.04946806
| 23> B      2.27216501     -1.31183508     -1.04946806
| 24> *
| 25> 
| 26>                          ****END OF INPUT****
================================================================================

                       *****************************
                       * Geometry Optimization Run *
                       *****************************

Geometry optimization settings:
Update method            Update   .... BFGS
Choice of coordinates    CoordSys .... (2022) Redundant Internals
Initial Hessian          InHess   .... Almloef's Model
Max. no of cycles        MaxIter  .... 300

Convergence Tolerances:
Energy Change            TolE     ....  5.0000e-06 Eh
Max. Gradient            TolMAXG  ....  3.0000e-04 Eh/bohr
RMS Gradient             TolRMSG  ....  1.0000e-04 Eh/bohr
Max. Displacement        TolMAXD  ....  4.0000e-03 bohr
RMS Displacement         TolRMSD  ....  2.0000e-03 bohr
Strict Convergence                .... False

------------------------------------------------------------------------------
                        ORCA OPTIMIZATION COORDINATE SETUP
------------------------------------------------------------------------------

The optimization will be done in redundant internal coordinates (2022)
Making redundant internal coordinates   ...  (2022 redundants) done
Evaluating the initial hessian          ...  (Almloef) done
Evaluating the coordinates              ...  done
Calculating the B-matrix                .... done
Calculating the G-matrix                .... done
The number of degrees of freedom        ....  240

    -----------------------------------------------------------------
                    Redundant Internal Coordinates


    -----------------------------------------------------------------
         Definition                    Initial Value    Approx d2E/dq
    -----------------------------------------------------------------
      1. B(B   1,B   0)                  2.6237         0.010000   
      2. B(B   2,B   1)                  2.6237         0.010000   
      3. B(B   3,B   2)                  2.6237         0.010000   
      4. B(B   4,B   3)                  2.6237         0.010000   
      5. B(B   5,B   0)                  2.6237         0.010000   
      6. B(B   5,B   4)                  2.6237         0.010000   
      7. B(B   6,B   1)                  2.5000         0.014205   
      8. B(B   6,B   0)                  2.5000         0.014205   
      9. B(B   7,B   6)                  2.6237         0.010000   
     10. B(B   7,B   1)                  2.5000         0.014205   
     11. B(B   7,B   2)                  2.5000         0.014205   
     12. B(B   8,B   3)                  2.5000         0.014205   
     13. B(B   8,B   7)                  2.6237         0.010000   
     14. B(B   8,B   2)                  2.5000         0.014205   
     15. B(B   9,B   8)                  2.6237         0.010000   
     16. B(B   9,B   3)                  2.5000         0.014205   
     17. B(B   9,B   4)                  2.5000         0.014205   
     18. B(B  10,B   5)                  2.5000         0.014205   
     19. B(B  10,B   9)                  2.6237         0.010000   
     20. B(B  10,B   4)                  2.5000         0.014205   
     21. B(B  11,B   6)                  2.6237         0.010000   
     22. B(B  11,B   5)                  2.5000         0.014205   
     23. B(B  11,B  10)                  2.6237         0.010000   
     24. B(B  11,B   0)                  2.5000         0.014205   
     25. A(B   1,B   0,B   5)          120.0000         0.142051   
     26. A(B   5,B   0,B  11)           58.3497         0.147797   
     27. A(B   5,B   0,B   6)          112.5899         0.147797   
     28. A(B   6,B   0,B  11)           63.3007         0.154165   
     29. A(B   1,B   0,B  11)          112.5899         0.147797   
     30. A(B   1,B   0,B   6)           58.3497         0.147797   
     31. A(B   0,B   1,B   6)           58.3497         0.147797   
     32. A(B   0,B   1,B   7)          112.5899         0.147797   
     33. A(B   0,B   1,B   2)          120.0000         0.142051   
     34. A(B   2,B   1,B   7)           58.3497         0.147797   
     35. A(B   2,B   1,B   6)          112.5899         0.147797   
     36. A(B   6,B   1,B   7)           63.3007         0.154165   
     37. A(B   1,B   2,B   8)          112.5899         0.147797   
     38. A(B   3,B   2,B   7)          112.5899         0.147797   
     39. A(B   7,B   2,B   8)           63.3007         0.154165   
     40. A(B   3,B   2,B   8)           58.3497         0.147797   
     41. A(B   1,B   2,B   3)          120.0000         0.142051   
     42. A(B   1,B   2,B   7)           58.3497         0.147797   
     43. A(B   8,B   3,B   9)           63.3007         0.154165   
     44. A(B   2,B   3,B   8)           58.3497         0.147797   
     45. A(B   4,B   3,B   9)           58.3497         0.147797   
     46. A(B   2,B   3,B   4)          120.0000         0.142051   
     47. A(B   4,B   3,B   8)          112.5899         0.147797   
     48. A(B   2,B   3,B   9)          112.5899         0.147797   
     49. A(B   9,B   4,B  10)           63.3007         0.154165   
     50. A(B   3,B   4,B   5)          120.0000         0.142051   
     51. A(B   5,B   4,B  10)           58.3497         0.147797   
     52. A(B   3,B   4,B   9)           58.3497         0.147797   
     53. A(B   3,B   4,B  10)          112.5899         0.147797   
     54. A(B   5,B   4,B   9)          112.5899         0.147797   
     55. A(B  10,B   5,B  11)           63.3007         0.154165   
     56. A(B   0,B   5,B   4)          120.0000         0.142051   
     57. A(B   0,B   5,B  11)           58.3497         0.147797   
     58. A(B   0,B   5,B  10)          112.5899         0.147797   
     59. A(B   4,B   5,B  11)          112.5899         0.147797   
     60. A(B   4,B   5,B  10)           58.3497         0.147797   
     61. A(B   1,B   6,B   7)           58.3497         0.147797   
     62. A(B   7,B   6,B  11)          120.0000         0.142051   
     63. A(B   0,B   6,B   7)          112.5899         0.147797   
     64. A(B   1,B   6,B  11)          112.5899         0.147797   
     65. A(B   0,B   6,B  11)           58.3497         0.147797   
     66. A(B   0,B   6,B   1)           63.3007         0.154165   
     67. A(B   1,B   7,B   2)           63.3007         0.154165   
     68. A(B   1,B   7,B   6)           58.3497         0.147797   
     69. A(B   2,B   7,B   8)           58.3497         0.147797   
     70. A(B   6,B   7,B   8)          120.0000         0.142051   
     71. A(B   1,B   7,B   8)          112.5899         0.147797   
     72. A(B   2,B   7,B   6)          112.5899         0.147797   
     73. A(B   3,B   8,B   7)          112.5899         0.147797   
     74. A(B   2,B   8,B   3)           63.3007         0.154165   
     75. A(B   2,B   8,B   7)           58.3497         0.147797   
     76. A(B   3,B   8,B   9)           58.3497         0.147797   
     77. A(B   7,B   8,B   9)          120.0000         0.142051   
     78. A(B   2,B   8,B   9)          112.5899         0.147797   
     79. A(B   4,B   9,B  10)           58.3497         0.147797   
     80. A(B   8,B   9,B  10)          120.0000         0.142051   
     81. A(B   3,B   9,B  10)          112.5899         0.147797   
     82. A(B   4,B   9,B   8)          112.5899         0.147797   
     83. A(B   3,B   9,B   4)           63.3007         0.154165   
     84. A(B   3,B   9,B   8)           58.3497         0.147797   
     85. A(B   5,B  10,B   9)          112.5899         0.147797   
     86. A(B   5,B  10,B  11)           58.3497         0.147797   
     87. A(B   4,B  10,B   5)           63.3007         0.154165   
     88. A(B   9,B  10,B  11)          120.0000         0.142051   
     89. A(B   4,B  10,B   9)           58.3497         0.147797   
     90. A(B   4,B  10,B  11)          112.5899         0.147797   
     91. A(B   5,B  11,B  10)           58.3497         0.147797   
     92. A(B   5,B  11,B   6)          112.5899         0.147797   
     93. A(B   0,B  11,B   5)           63.3007         0.154165   
     94. A(B   6,B  11,B  10)          120.0000         0.142051   
     95. A(B   0,B  11,B   6)           58.3497         0.147797   
     96. A(B   0,B  11,B  10)          112.5899         0.147797   
     97. D(B   7,B   1,B   0,B   6)     34.0926         0.010000   
     98. D(B   6,B   1,B   0,B  11)    -34.0926         0.010000   
     99. D(B   7,B   1,B   0,B   5)    -65.4144         0.010000   
    100. D(B   6,B   1,B   0,B   5)    -99.5070         0.010000   
    101. D(B   2,B   1,B   0,B   6)     99.5070         0.010000   
    102. D(B   7,B   1,B   0,B  11)      0.0000         0.010000   
    103. D(B   3,B   2,B   1,B   6)     65.4144         0.010000   
    104. D(B   7,B   2,B   1,B   0)    -99.5070         0.010000   
    105. D(B   7,B   2,B   1,B   6)    -34.0926         0.010000   
    106. D(B   8,B   2,B   1,B   0)    -65.4144         0.010000   
    107. D(B   8,B   2,B   1,B   7)     34.0926         0.010000   
    108. D(B   8,B   2,B   1,B   6)      0.0000         0.010000   
    109. D(B   9,B   3,B   2,B   7)     -0.0000         0.010000   
    110. D(B   9,B   3,B   2,B   1)    -65.4144         0.010000   
    111. D(B   8,B   3,B   2,B   1)    -99.5070         0.010000   
    112. D(B   8,B   3,B   2,B   7)    -34.0926         0.010000   
    113. D(B   4,B   3,B   2,B   7)     65.4144         0.010000   
    114. D(B   9,B   3,B   2,B   8)     34.0926         0.010000   
    115. D(B  10,B   4,B   3,B   8)      0.0000         0.010000   
    116. D(B  10,B   4,B   3,B   2)    -65.4144         0.010000   
    117. D(B   9,B   4,B   3,B   8)    -34.0926         0.010000   
    118. D(B   9,B   4,B   3,B   2)    -99.5070         0.010000   
    119. D(B  10,B   4,B   3,B   9)     34.0926         0.010000   
    120. D(B   5,B   4,B   3,B   8)     65.4144         0.010000   
    121. D(B  10,B   5,B   0,B   1)     65.4144         0.010000   
    122. D(B  11,B   5,B   0,B   1)     99.5070         0.010000   
    123. D(B   4,B   5,B   0,B   6)    -65.4144         0.010000   
    124. D(B  10,B   5,B   0,B  11)    -34.0926         0.010000   
    125. D(B  10,B   5,B   0,B   6)     -0.0000         0.010000   
    126. D(B  10,B   5,B   4,B   9)    -34.0926         0.010000   
    127. D(B  11,B   5,B   0,B   6)     34.0926         0.010000   
    128. D(B  11,B   5,B   4,B  10)     34.0926         0.010000   
    129. D(B  11,B   5,B   4,B   9)      0.0000         0.010000   
    130. D(B  11,B   5,B   4,B   3)    -65.4144         0.010000   
    131. D(B   0,B   5,B   4,B   9)     65.4144         0.010000   
    132. D(B  10,B   5,B   4,B   3)    -99.5070         0.010000   
    133. D(B   7,B   6,B   1,B   0)    144.5992         0.010000   
    134. D(B  11,B   6,B   1,B   7)   -112.3155         0.010000   
    135. D(B  11,B   6,B   1,B   0)     32.2836         0.010000   
    136. D(B   0,B   6,B   1,B   2)   -112.3155         0.010000   
    137. D(B   0,B   6,B   1,B   7)   -144.5992         0.010000   
    138. D(B   7,B   6,B   0,B   1)    -32.2836         0.010000   
    139. D(B   1,B   6,B   0,B  11)    144.5992         0.010000   
    140. D(B  11,B   6,B   0,B   5)    -32.2836         0.010000   
    141. D(B  11,B   6,B   0,B   1)   -144.5992         0.010000   
    142. D(B  11,B   6,B   1,B   2)    -80.0319         0.010000   
    143. D(B   1,B   6,B   0,B   5)    112.3155         0.010000   
    144. D(B   7,B   6,B   0,B  11)    112.3155         0.010000   
    145. D(B   1,B   7,B   6,B  11)     99.5070         0.010000   
    146. D(B   1,B   7,B   6,B   0)     34.0926         0.010000   
    147. D(B   8,B   7,B   2,B   1)    144.5992         0.010000   
    148. D(B   1,B   7,B   2,B   8)   -144.5992         0.010000   
    149. D(B   1,B   7,B   2,B   3)   -112.3155         0.010000   
    150. D(B   6,B   7,B   2,B   8)   -112.3155         0.010000   
    151. D(B   8,B   7,B   1,B   0)     80.0319         0.010000   
    152. D(B   6,B   7,B   2,B   3)    -80.0319         0.010000   
    153. D(B   8,B   7,B   1,B   6)    112.3155         0.010000   
    154. D(B   2,B   7,B   1,B   0)    112.3155         0.010000   
    155. D(B   6,B   7,B   2,B   1)     32.2836         0.010000   
    156. D(B   6,B   7,B   1,B   0)    -32.2836         0.010000   
    157. D(B   6,B   7,B   1,B   2)   -144.5992         0.010000   
    158. D(B   2,B   7,B   6,B   0)      0.0000         0.010000   
    159. D(B   2,B   7,B   1,B   6)    144.5992         0.010000   
    160. D(B   8,B   7,B   6,B   0)    -65.4144         0.010000   
    161. D(B   2,B   7,B   6,B   1)    -34.0926         0.010000   
    162. D(B   2,B   7,B   6,B  11)     65.4144         0.010000   
    163. D(B   9,B   8,B   7,B   1)    -65.4144         0.010000   
    164. D(B   3,B   8,B   7,B   2)    -34.0926         0.010000   
    165. D(B   3,B   8,B   7,B   6)     65.4144         0.010000   
    166. D(B   3,B   8,B   7,B   1)     -0.0000         0.010000   
    167. D(B   2,B   8,B   7,B   6)     99.5070         0.010000   
    168. D(B   9,B   8,B   3,B   2)    144.5992         0.010000   
    169. D(B   7,B   8,B   3,B   4)    -80.0319         0.010000   
    170. D(B   7,B   8,B   3,B   9)   -112.3155         0.010000   
    171. D(B   7,B   8,B   3,B   2)     32.2836         0.010000   
    172. D(B   2,B   8,B   3,B   4)   -112.3155         0.010000   
    173. D(B   2,B   8,B   3,B   9)   -144.5992         0.010000   
    174. D(B   2,B   8,B   7,B   1)     34.0926         0.010000   
    175. D(B   9,B   8,B   2,B   1)     80.0319         0.010000   
    176. D(B   3,B   8,B   2,B   7)    144.5992         0.010000   
    177. D(B   7,B   8,B   2,B   3)   -144.5992         0.010000   
    178. D(B   7,B   8,B   2,B   1)    -32.2836         0.010000   
    179. D(B   9,B   8,B   2,B   7)    112.3155         0.010000   
    180. D(B   3,B   8,B   2,B   1)    112.3155         0.010000   
    181. D(B  10,B   9,B   8,B   2)    -65.4144         0.010000   
    182. D(B   4,B   9,B   8,B   3)    -34.0926         0.010000   
    183. D(B   4,B   9,B   8,B   7)     65.4144         0.010000   
    184. D(B   4,B   9,B   8,B   2)     -0.0000         0.010000   
    185. D(B   3,B   9,B   8,B   7)     99.5070         0.010000   
    186. D(B   3,B   9,B   8,B   2)     34.0926         0.010000   
    187. D(B  10,B   9,B   4,B   3)    144.5992         0.010000   
    188. D(B   8,B   9,B   4,B   5)    -80.0319         0.010000   
    189. D(B   8,B   9,B   4,B  10)   -112.3155         0.010000   
    190. D(B   8,B   9,B   4,B   3)     32.2836         0.010000   
    191. D(B   3,B   9,B   4,B   5)   -112.3155         0.010000   
    192. D(B   3,B   9,B   4,B  10)   -144.5992         0.010000   
    193. D(B  10,B   9,B   3,B   2)     80.0319         0.010000   
    194. D(B  10,B   9,B   3,B   8)    112.3155         0.010000   
    195. D(B   4,B   9,B   3,B   2)    112.3155         0.010000   
    196. D(B   4,B   9,B   3,B   8)    144.5992         0.010000   
    197. D(B   8,B   9,B   3,B   4)   -144.5992         0.010000   
    198. D(B   8,B   9,B   3,B   2)    -32.2836         0.010000   
    199. D(B   5,B  10,B   9,B   3)      0.0000         0.010000   
    200. D(B  11,B  10,B   9,B   8)      0.0000         0.010000   
    201. D(B  11,B  10,B   9,B   3)    -65.4144         0.010000   
    202. D(B   4,B  10,B   9,B   8)     99.5070         0.010000   
    203. D(B   4,B  10,B   9,B   3)     34.0926         0.010000   
    204. D(B   9,B  10,B   5,B   4)     32.2836         0.010000   
    205. D(B   9,B  10,B   5,B  11)   -112.3155         0.010000   
    206. D(B  11,B  10,B   5,B   0)     32.2836         0.010000   
    207. D(B  11,B  10,B   5,B   4)    144.5992         0.010000   
    208. D(B   4,B  10,B   5,B   0)   -112.3155         0.010000   
    209. D(B   4,B  10,B   5,B  11)   -144.5992         0.010000   
    210. D(B   5,B  10,B   4,B   9)    144.5992         0.010000   
    211. D(B   9,B  10,B   4,B   5)   -144.5992         0.010000   
    212. D(B   9,B  10,B   4,B   3)    -32.2836         0.010000   
    213. D(B  11,B  10,B   4,B   5)    -32.2836         0.010000   
    214. D(B  11,B  10,B   9,B   4)    -99.5070         0.010000   
    215. D(B  11,B  10,B   4,B   3)     80.0319         0.010000   
    216. D(B  11,B  10,B   4,B   9)    112.3155         0.010000   
    217. D(B   5,B  11,B   0,B   6)   -144.5992         0.010000   
    218. D(B  10,B  11,B   0,B   5)     32.2836         0.010000   
    219. D(B  10,B  11,B   0,B   1)    -80.0319         0.010000   
    220. D(B  10,B  11,B   0,B   6)   -112.3155         0.010000   
    221. D(B   6,B  11,B   0,B   5)    144.5992         0.010000   
    222. D(B   0,B  11,B   5,B  10)    144.5992         0.010000   
    223. D(B   6,B  11,B   0,B   1)     32.2836         0.010000   
    224. D(B   6,B  11,B  10,B   5)    -99.5070         0.010000   
    225. D(B   6,B  11,B  10,B   4)    -65.4144         0.010000   
    226. D(B   0,B  11,B  10,B   5)    -34.0926         0.010000   
    227. D(B   0,B  11,B  10,B   9)     65.4144         0.010000   
    228. D(B   5,B  11,B   6,B   0)     34.0926         0.010000   
    229. D(B  10,B  11,B   6,B   7)      0.0000         0.010000   
    230. D(B  10,B  11,B   6,B   1)     65.4144         0.010000   
    231. D(B  10,B  11,B   6,B   0)     99.5070         0.010000   
    232. D(B   0,B  11,B   6,B   7)    -99.5070         0.010000   
    233. D(B   0,B  11,B   6,B   1)    -34.0926         0.010000   
    234. D(B   0,B  11,B  10,B   4)     -0.0000         0.010000   
    235. D(B  10,B  11,B   5,B   4)    -32.2836         0.010000   
    236. D(B   6,B  11,B   5,B   0)    -32.2836         0.010000   
    237. D(B   6,B  11,B   5,B   4)     80.0319         0.010000   
    238. D(B   6,B  11,B  10,B   9)      0.0000         0.010000   
    239. D(B   6,B  11,B   5,B  10)    112.3155         0.010000   
    240. D(B   0,B  11,B   5,B   4)    112.3155         0.010000   
    -----------------------------------------------------------------

Number of atoms                         .... 12
Number of degrees of freedom            .... 240


         *************************************************************
         *                GEOMETRY OPTIMIZATION CYCLE   1            *
         *************************************************************
---------------------------------
CARTESIAN COORDINATES (ANGSTROEM)
---------------------------------
  B      2.623670   -0.000000    1.049468
  B      1.311835    2.272165    1.049468
  B     -1.311835    2.272165    1.049468
  B     -2.623670    0.000000    1.049468
  B     -1.311835   -2.272165    1.049468
  B      1.311835   -2.272165    1.049468
  B      2.272165    1.311835   -1.049468
  B      0.000000    2.623670   -1.049468
  B     -2.272165    1.311835   -1.049468
  B     -2.272165   -1.311835   -1.049468
  B     -0.000000   -2.623670   -1.049468
  B      2.272165   -1.311835   -1.049468

----------------------------
CARTESIAN COORDINATES (A.U.)
----------------------------
  NO LB      ZA    FRAG     MASS         X           Y           Z
   0 B     5.0000    0    10.810    4.958018   -0.000000    1.983207
   1 B     5.0000    0    10.810    2.479009    4.293770    1.983207
   2 B     5.0000    0    10.810   -2.479009    4.293770    1.983207
   3 B     5.0000    0    10.810   -4.958018    0.000000    1.983207
   4 B     5.0000    0    10.810   -2.479009   -4.293770    1.983207
   5 B     5.0000    0    10.810    2.479009   -4.293770    1.983207
   6 B     5.0000    0    10.810    4.293770    2.479009   -1.983207
   7 B     5.0000    0    10.810    0.000000    4.958018   -1.983207
   8 B     5.0000    0    10.810   -4.293770    2.479009   -1.983207
   9 B     5.0000    0    10.810   -4.293770   -2.479009   -1.983207
  10 B     5.0000    0    10.810   -0.000000   -4.958018   -1.983207
  11 B     5.0000    0    10.810    4.293770   -2.479009   -1.983207

--------------------------------
INTERNAL COORDINATES (ANGSTROEM)
--------------------------------
 B      0   0   0     0.000000000000     0.00000000     0.00000000
 B      1   0   0     2.623670160250     0.00000000     0.00000000
 B      2   1   0     2.623670160000   120.00000000     0.00000000
 B      3   2   1     2.623670160250   120.00000000     0.00000000
 B      4   3   2     2.623670160250   120.00000001     0.00000000
 B      5   4   3     2.623670160000   120.00000000     0.00000000
 B      1   2   3     2.499999996687    58.34965981    99.50700223
 B      2   1   3     2.499999996687   112.58986261   294.58559927
 B      4   3   2     2.499999996687    58.34965981   260.49299777
 B      4   3   2     2.499999996687   112.58986262   294.58559926
 B      5   4   3     2.499999996687   112.58986261   294.58559927
 B      1   2   3     2.499999996687   112.58986262    65.41440074

---------------------------
INTERNAL COORDINATES (A.U.)
---------------------------
 B      0   0   0     0.000000000000     0.00000000     0.00000000
 B      1   0   0     4.958018068614     0.00000000     0.00000000
 B      2   1   0     4.958018068141   120.00000000     0.00000000
 B      3   2   1     4.958018068614   120.00000000     0.00000000
 B      4   3   2     4.958018068614   120.00000001     0.00000000
 B      5   4   3     4.958018068141   120.00000000     0.00000000
 B      1   2   3     4.724315328543    58.34965981    99.50700223
 B      2   1   3     4.724315328543   112.58986261   294.58559927
 B      4   3   2     4.724315328543    58.34965981   260.49299777
 B      4   3   2     4.724315328543   112.58986262   294.58559926
 B      5   4   3     4.724315328543   112.58986261   294.58559927
 B      1   2   3     4.724315328543   112.58986262    65.41440074

---------------------
BASIS SET INFORMATION
---------------------
There are 1 groups of distinct atoms

 Group   1 Type B   : 7s4p1d contracted to 3s2p1d pattern {511/31/1}

Atom   0B    basis set group =>   1
Atom   1B    basis set group =>   1
Atom   2B    basis set group =>   1
Atom   3B    basis set group =>   1
Atom   4B    basis set group =>   1
Atom   5B    basis set group =>   1
Atom   6B    basis set group =>   1
Atom   7B    basis set group =>   1
Atom   8B    basis set group =>   1
Atom   9B    basis set group =>   1
Atom  10B    basis set group =>   1
Atom  11B    basis set group =>   1
---------------------------------
AUXILIARY/J BASIS SET INFORMATION
---------------------------------
There are 1 groups of distinct atoms

 Group   1 Type B   : 12s5p4d2f1g contracted to 6s4p3d1f1g pattern {711111/2111/211/2/1}

Atom   0B    basis set group =>   1
Atom   1B    basis set group =>   1
Atom   2B    basis set group =>   1
Atom   3B    basis set group =>   1
Atom   4B    basis set group =>   1
Atom   5B    basis set group =>   1
Atom   6B    basis set group =>   1
Atom   7B    basis set group =>   1
Atom   8B    basis set group =>   1
Atom   9B    basis set group =>   1
Atom  10B    basis set group =>   1
Atom  11B    basis set group =>   1


           ************************************************************
           *        Program running with 8 parallel MPI-processes     *
           *              working on a common directory               *
           ************************************************************
------------------------------------------------------------------------------
                             ORCA STARTUP CALCULATIONS
                           -- RI-GTO INTEGRALS CHOSEN --
------------------------------------------------------------------------------
------------------------------------------------------------------------------
                   ___                                                        
                  /   \      - P O W E R E D   B Y -                         
                 /     \                                                     
                 |  |  |   _    _      __       _____    __    __             
                 |  |  |  | |  | |    /  \     |  _  \  |  |  /  |          
                  \  \/   | |  | |   /    \    | | | |  |  | /  /          
                 / \  \   | |__| |  /  /\  \   | |_| |  |  |/  /          
                |  |  |   |  __  | /  /__\  \  |    /   |      \           
                |  |  |   | |  | | |   __   |  |    \   |  |\   \          
                \     /   | |  | | |  |  |  |  | |\  \  |  | \   \       
                 \___/    |_|  |_| |__|  |__|  |_| \__\ |__|  \__/        
                                                                              
                      - O R C A' S   B I G   F R I E N D -                    
                                      &                                       
                       - I N T E G R A L  F E E D E R -                       
                                                                              
 v1 FN, 2020, v2 2021, v3 2022-2024                                           
------------------------------------------------------------------------------


----------------------
SHARK INTEGRAL PACKAGE
----------------------

Number of atoms                             ...     12
Number of basis functions                   ...    168
Number of shells                            ...     72
Maximum angular momentum                    ...      2
Integral batch strategy                     ... SHARK/LIBINT Hybrid
RI-J (if used) integral strategy            ... SPLIT-RIJ (Revised 2003 algorithm where possible)
Printlevel                                  ...      1
Contraction scheme used                     ... SEGMENTED contraction
Prescreening option                         ... SCHWARTZ
   Thresh                                   ... 2.500e-11
   Tcut                                     ... 2.500e-12
   Tpresel                                  ... 2.500e-12 
Coulomb Range Separation                    ... NOT USED
Exchange Range Separation                   ... NOT USED
Multipole approximations                    ... NOT USED
Finite Nucleus Model                        ... NOT USED
CABS basis                                  ... NOT available
Auxiliary Coulomb fitting basis             ... AVAILABLE
   # of basis functions in Aux-J            ...    588
   # of shells in Aux-J                     ...    180
   Maximum angular momentum in Aux-J        ...      4
Auxiliary J/K fitting basis                 ... NOT available
Auxiliary Correlation fitting basis         ... NOT available
Auxiliary 'external' fitting basis          ... NOT available

Checking pre-screening integrals            ... done (  0.0 sec) Dimension = 72
   => SHARK Basis and OBASIS are compatible. Storing Pre-screening
Shell pair information
Shell pair cut-off parameter TPreSel        ...   2.5e-12
Total number of shell pairs                 ...      2628
Shell pairs after pre-screening             ...      2466
Total number of primitive shell pairs       ...     10596
Primitive shell pairs kept                  ...      6846
          la=0 lb=0:    600 shell pairs
          la=1 lb=0:    828 shell pairs
          la=1 lb=1:    300 shell pairs
          la=2 lb=0:    372 shell pairs
          la=2 lb=1:    288 shell pairs
          la=2 lb=2:     78 shell pairs

Checking whether 4 symmetric matrices of dimension 168 fit in memory
:Max Core in MB      =   2500.00
 MB in use           =      6.62
 MB left             =   2493.38
 MB needed           =      0.43
 Data fit in memory  = YES
Calculating RI/J V-Matrix + Cholesky decomp.... done (  0.1 sec)
Calculating Nuclear repulsion               ... done (  0.0 sec) ENN=    240.248930224144 Eh

Diagonalization of the overlap matrix:
Smallest eigenvalue                        ... 6.955e-03
Time for diagonalization                   ...    0.003 sec
Threshold for overlap eigenvalues          ... 1.000e-07
Number of eigenvalues below threshold      ... 0
Time for construction of square roots      ...    0.002 sec
Total time needed                          ...    0.008 sec

-------------------
DFT GRID GENERATION
-------------------

General Integration Accuracy     IntAcc      ... 4.388
Radial Grid Type                 RadialGrid  ... OptM3 with GC (2021)
Angular Grid (max. ang.)         AngularGrid ... 4 (Lebedev-302)
Angular grid pruning method      GridPruning ... 4 (adaptive)
Weight generation scheme         WeightScheme... mBecke (2022)
Basis function cutoff            BFCut       ... 1.0000e-11
Integration weight cutoff        WCut        ... 1.0000e-14
Partially contracted basis set               ... off
Rotationally invariant grid construction     ... off
Angular grids for H and He will be reduced by one unit

Total number of grid points                  ...    72604
Total number of batches                      ...     1140
Average number of points per batch           ...       63
Average number of grid points per atom       ...     6050
Grids setup in   0.9 sec
Initializing property integral containers    ... done (  0.0 sec)

SHARK setup successfully completed in   1.3 seconds

Maximum memory used throughout the entire STARTUP-calculation: 19.8 MB


           ************************************************************
           *        Program running with 8 parallel MPI-processes     *
           *              working on a common directory               *
           ************************************************************
-------------------------------------------------------------------------------
                                 ORCA GUESS
                   Start orbitals & Density for SCF / CASSCF
-------------------------------------------------------------------------------

------------
SCF SETTINGS
------------
Hamiltonian:
 Density Functional     Method          .... DFT(GTOs)
 Exchange Functional    Exchange        .... B88
   X-Alpha parameter    XAlpha          ....  0.666667
   Becke's b parameter  XBeta           ....  0.004200
 Correlation Functional Correlation     .... P86
 LDA part of GGA corr.  LDAOpt          .... PW91-LDA
 Gradients option       PostSCFGGA      .... off
   NL short-range parameter             ....  4.400000
 RI-approximation to the Coulomb term is turned on
   Number of AuxJ basis functions       .... 588


General Settings:
 Integral files         IntName         .... hex_antiprism_nn2.50
 Hartree-Fock type      HFTyp           .... RHF
 Total Charge           Charge          ....    0
 Multiplicity           Mult            ....    1
 Number of Electrons    NEL             ....   60
 Basis Dimension        Dim             ....  168
 Nuclear Repulsion      ENuc            ....    240.2489302241 Eh

Convergence Acceleration:
 AO-DIIS                CNVDIIS         .... on
   Start iteration      DIISMaxIt       ....     0
   Startup error        DIISStart       ....  0.200000
   # of expansion vecs  DIISMaxEq       ....     5
   Bias factor          DIISBfac        ....   1.050
   Max. coefficient     DIISMaxC        ....  10.000
 MO-DIIS                CNVKDIIS        .... off
 Trust-Rad. Augm. Hess. CNVTRAH         .... auto
   Auto Start mean grad. ratio tolernc. ....  1.125000
   Auto Start start iteration           ....    50
   Auto Start num. interpolation iter.  ....    10
   Max. Number of Micro iterations      ....    24
   Max. Number of Macro iterations      .... Maxiter - #DIIS iter
   Number of Davidson start vectors     ....     2
   Converg. threshold    (grad. norm)   ....   1.000e-05
   Grad. Scal. Fac. for Micro threshold ....   0.100
   Minimum threshold for Micro iter.    ....   1.000e-02
   NR start threshold (gradient norm)   ....   1.000e-04
   Initial trust radius                 ....   0.400
   Minimum AH scaling param. (alpha)    ....   1.000
   Maximum AH scaling param. (alpha)    .... 1000.000
   Quad. conv. algorithm                .... NR
   White noise on init. David. guess    .... on
   Maximum white noise                  ....   0.010
   Pseudo random numbers                .... off
   Inactive MOs                         .... canonical
   Orbital update algorithm             .... Taylor
   Preconditioner                       .... Diag
   Full preconditioner red. dimension   ....   250
 SOSCF                 CNVSOSCF           .... on
   Start iteration     SOSCFMaxIt         ....   150
   Startup grad/error  SOSCFStart         ....  0.001000
   Hessian update      SOSCFHessUp        .... L-BFGS
   Autom. constraints  SOSCFAutoConstrain .... off
 Level Shifting         CNVShift        .... on
   Level shift para.    LevelShift      ....    0.2500
   Turn off err/grad.   ShiftErr        ....    0.0000
 Zerner damping         CNVZerner       .... off
 Static damping         CNVDamp         .... on
   Fraction old density DampFac         ....    0.8500
   Max. Damping (<1)    DampMax         ....    0.9800
   Min. Damping (>=0)   DampMin         ....    0.0000
   Turn off err/grad.   DampErr         ....    0.0300

SCF Procedure:
 Maximum # iterations   MaxIter         ....   125
 SCF integral mode      SCFMode         .... Direct
   Integral package                     .... SHARK and LIBINT hybrid scheme
 Reset frequency        DirectResetFreq ....    20
 Integral Threshold     Thresh          ....  2.500e-11 Eh
 Primitive CutOff       TCut            ....  2.500e-12 Eh

Convergence Tolerance:
 Convergence Check Mode ConvCheckMode   .... Total+1el-Energy
 Convergence forced     ConvForced      .... 0
 Energy Change          TolE            ....  1.000e-08 Eh
 1-El. energy change                    ....  1.000e-05 Eh
 Orbital Gradient       TolG            ....  1.000e-05
 Orbital Rotation angle TolX            ....  1.000e-05
 DIIS Error             TolErr          ....  5.000e-07

------------------------------
INITIAL GUESS: MODEL POTENTIAL
------------------------------
Loading Hartree-Fock densities                     ... done
Calculating cut-offs                               ... done
Initializing the effective Hamiltonian             ... done
Setting up the integral package (SHARK)            ... done
Starting the Coulomb interaction                   ... done (   0.2 sec)
Making the grid                                    ... done (   0.3 sec)
Mapping shells                                     ... done
Starting the XC term evaluation                    ... done (   0.1 sec)
  promolecular density results
     # of electrons  =     60.000899329
     EX              =    -44.486597260
     EC              =     -1.764829187
     EX+EC           =    -46.251426448
Transforming the Hamiltonian                       ... done (   0.1 sec)
Diagonalizing the Hamiltonian                      ... done (   0.1 sec)
Back transforming the eigenvectors                 ... done (   0.0 sec)
Now organizing SCF variables                       ... done
                      ------------------
                      INITIAL GUESS DONE (   1.0 sec)
                      ------------------
             **** ENERGY FILE WAS UPDATED (hex_antiprism_nn2.50.en.tmp) ****
Finished Guess after   1.9 sec
Maximum memory used throughout the entire GUESS-calculation: 9.4 MB


           ************************************************************
           *        Program running with 8 parallel MPI-processes     *
           *              working on a common directory               *
           ************************************************************

-------------------------------------------------------------------------------------------
                                      ORCA LEAN-SCF
                              memory conserving SCF solver
-------------------------------------------------------------------------------------------

----------------------------------------D-I-I-S--------------------------------------------
Iteration    Energy (Eh)           Delta-E    RMSDP     MaxDP     DIISErr   Damp  Time(sec)
-------------------------------------------------------------------------------------------
               ***  Starting incremental Fock matrix formation  ***
    1    -296.2894590168338596     0.00e+00  4.49e-04  1.64e-03  9.94e-03  0.850   0.6
Warning: op=0 Small HOMO/LUMO gap (   0.007) - skipping pre-diagonalization
         Will do a full diagonalization
    2    -296.2898713639635275    -4.12e-04  5.82e-04  1.97e-03  8.56e-03  0.850   2.3
                               ***Turning on AO-DIIS***
    3    -296.2902384160873339    -3.67e-04  4.39e-04  1.59e-03  7.10e-03  0.850   1.9
    4    -296.2905073193265366    -2.69e-04  2.32e-03  8.41e-03  5.96e-03  0.000   2.1
                              *** Initializing SOSCF ***
---------------------------------------S-O-S-C-F--------------------------------------
Iteration    Energy (Eh)           Delta-E    RMSDP     MaxDP     MaxGrad    Time(sec)
--------------------------------------------------------------------------------------
    5    -296.2917005111614230    -1.19e-03  2.09e-04  1.04e-03  9.07e-04     0.7
               *** Restarting incremental Fock matrix formation ***
    6    -296.2917158959727999    -1.54e-05  9.53e-05  3.60e-04  1.51e-04     0.6
    7    -296.2917169880102506    -1.09e-06  3.86e-05  1.21e-04  1.18e-04     0.3
    8    -296.2917175806867931    -5.93e-07  1.81e-05  1.05e-04  2.30e-05     0.8
    9    -296.2917176074316217    -2.67e-08  5.69e-06  2.10e-05  1.49e-05     0.4
   10    -296.2917176188167900    -1.14e-08  1.69e-06  1.42e-05  1.88e-06     0.3
                  *** Gradient check signals convergence ***

               *****************************************************
               *                     SUCCESS                       *
               *           SCF CONVERGED AFTER  10 CYCLES          *
               *****************************************************

             **** ENERGY FILE WAS UPDATED (hex_antiprism_nn2.50.en.tmp) ****

----------------
TOTAL SCF ENERGY
----------------

Total Energy       :       -296.29171761960339 Eh           -8062.50753 eV

Components:
Nuclear Repulsion  :        240.24893022414420 Eh            6537.50575 eV
Electronic Energy  :       -536.54064784374759 Eh          -14600.01328 eV
One Electron Energy:       -868.48036192589632 Eh          -23632.55210 eV
Two Electron Energy:        331.93971408214867 Eh            9032.53883 eV

Virial components:
Potential Energy   :       -588.11056337706168 Eh          -16003.30202 eV
Kinetic Energy     :        291.81884575745829 Eh            7940.79450 eV
Virial Ratio       :          2.01532756340851

DFT components:
N(Alpha)           :       29.999769359685 electrons
N(Beta)            :       29.999769359685 electrons
N(Total)           :       59.999538719370 electrons
E(X)               :      -44.684659650777 Eh       
E(C)               :       -1.800590026054 Eh       
E(XC)              :      -46.485249676831 Eh       

---------------
SCF CONVERGENCE
---------------

  Last Energy change         ...    1.1385e-08  Tolerance :   1.0000e-08
  Last MAX-Density change    ...    1.4163e-05  Tolerance :   1.0000e-07
  Last RMS-Density change    ...    1.6862e-06  Tolerance :   5.0000e-09
  Last DIIS Error            ...    9.0714e-04  Tolerance :   5.0000e-07
  Last Orbital Gradient      ...    1.8833e-06  Tolerance :   1.0000e-05
  Last Orbital Rotation      ...    1.1246e-05  Tolerance :   1.0000e-05


----------------
ORBITAL ENERGIES
----------------

  NO   OCC          E(Eh)            E(eV) 
   0   2.0000      -6.654504      -181.0782 
   1   2.0000      -6.654504      -181.0782 
   2   2.0000      -6.654465      -181.0772 
   3   2.0000      -6.654459      -181.0770 
   4   2.0000      -6.654434      -181.0764 
   5   2.0000      -6.654429      -181.0762 
   6   2.0000      -6.654419      -181.0760 
   7   2.0000      -6.654419      -181.0760 
   8   2.0000      -6.654330      -181.0735 
   9   2.0000      -6.654308      -181.0729 
  10   2.0000      -6.654308      -181.0729 
  11   2.0000      -6.654151      -181.0687 
  12   2.0000      -0.478933       -13.0324 
  13   2.0000      -0.453707       -12.3460 
  14   2.0000      -0.453707       -12.3460 
  15   2.0000      -0.393141       -10.6979 
  16   2.0000      -0.393140       -10.6979 
  17   2.0000      -0.359575        -9.7845 
  18   2.0000      -0.335788        -9.1372 
  19   2.0000      -0.335788        -9.1372 
  20   2.0000      -0.312707        -8.5092 
  21   2.0000      -0.312707        -8.5092 
  22   2.0000      -0.284371        -7.7381 
  23   2.0000      -0.284368        -7.7380 
  24   2.0000      -0.224382        -6.1058 
  25   2.0000      -0.211049        -5.7429 
  26   2.0000      -0.207537        -5.6474 
  27   2.0000      -0.207536        -5.6474 
  28   2.0000      -0.203774        -5.5450 
  29   2.0000      -0.203774        -5.5450 
  30   0.0000      -0.196443        -5.3455 
  31   0.0000      -0.196443        -5.3455 
  32   0.0000      -0.185967        -5.0604 
  33   0.0000      -0.185967        -5.0604 
  34   0.0000      -0.165953        -4.5158 
  35   0.0000      -0.165949        -4.5157 
  36   0.0000      -0.148315        -4.0359 
  37   0.0000      -0.140779        -3.8308 
  38   0.0000      -0.140779        -3.8308 
  39   0.0000      -0.122611        -3.3364 
  40   0.0000      -0.122609        -3.3364 
*Only the first 10 virtual orbitals were printed.

                    ********************************
                    * MULLIKEN POPULATION ANALYSIS *
                    ********************************

-----------------------
MULLIKEN ATOMIC CHARGES
-----------------------
   0 B :   -0.000013
   1 B :    0.000007
   2 B :    0.000007
   3 B :   -0.000013
   4 B :    0.000007
   5 B :    0.000007
   6 B :    0.000007
   7 B :   -0.000013
   8 B :    0.000007
   9 B :    0.000007
  10 B :   -0.000013
  11 B :    0.000007
Sum of atomic charges:   -0.0000000

--------------------------------
MULLIKEN REDUCED ORBITAL CHARGES
--------------------------------
  0 B s       :     3.796117  s :     3.796117
      pz      :     0.359380  p :     1.192712
      px      :     0.233196
      py      :     0.600137
      dz2     :     0.003735  d :     0.011184
      dxz     :     0.000713
      dyz     :     0.002822
      dx2y2   :     0.001593
      dxy     :     0.002321

  1 B s       :     3.796105  s :     3.796105
      pz      :     0.359391  p :     1.192704
      px      :     0.508376
      py      :     0.324937
      dz2     :     0.003735  d :     0.011184
      dxz     :     0.002295
      dyz     :     0.001240
      dx2y2   :     0.002139
      dxy     :     0.001775

  2 B s       :     3.796105  s :     3.796105
      pz      :     0.359391  p :     1.192704
      px      :     0.508376
      py      :     0.324937
      dz2     :     0.003735  d :     0.011184
      dxz     :     0.002295
      dyz     :     0.001240
      dx2y2   :     0.002139
      dxy     :     0.001775

  3 B s       :     3.796117  s :     3.796117
      pz      :     0.359380  p :     1.192712
      px      :     0.233196
      py      :     0.600137
      dz2     :     0.003735  d :     0.011184
      dxz     :     0.000713
      dyz     :     0.002822
      dx2y2   :     0.001593
      dxy     :     0.002321

  4 B s       :     3.796105  s :     3.796105
      pz      :     0.359391  p :     1.192704
      px      :     0.508376
      py      :     0.324937
      dz2     :     0.003735  d :     0.011184
      dxz     :     0.002295
      dyz     :     0.001240
      dx2y2   :     0.002139
      dxy     :     0.001775

  5 B s       :     3.796105  s :     3.796105
      pz      :     0.359391  p :     1.192704
      px      :     0.508376
      py      :     0.324937
      dz2     :     0.003735  d :     0.011184
      dxz     :     0.002295
      dyz     :     0.001240
      dx2y2   :     0.002139
      dxy     :     0.001775

  6 B s       :     3.796105  s :     3.796105
      pz      :     0.359391  p :     1.192704
      px      :     0.324937
      py      :     0.508376
      dz2     :     0.003735  d :     0.011184
      dxz     :     0.001240
      dyz     :     0.002295
      dx2y2   :     0.002139
      dxy     :     0.001775

  7 B s       :     3.796117  s :     3.796117
      pz      :     0.359380  p :     1.192712
      px      :     0.600137
      py      :     0.233196
      dz2     :     0.003735  d :     0.011184
      dxz     :     0.002822
      dyz     :     0.000713
      dx2y2   :     0.001593
      dxy     :     0.002321

  8 B s       :     3.796105  s :     3.796105
      pz      :     0.359391  p :     1.192704
      px      :     0.324937
      py      :     0.508376
      dz2     :     0.003735  d :     0.011184
      dxz     :     0.001240
      dyz     :     0.002295
      dx2y2   :     0.002139
      dxy     :     0.001775

  9 B s       :     3.796105  s :     3.796105
      pz      :     0.359391  p :     1.192704
      px      :     0.324937
      py      :     0.508376
      dz2     :     0.003735  d :     0.011184
      dxz     :     0.001240
      dyz     :     0.002295
      dx2y2   :     0.002139
      dxy     :     0.001775

 10 B s       :     3.796117  s :     3.796117
      pz      :     0.359380  p :     1.192712
      px      :     0.600137
      py      :     0.233196
      dz2     :     0.003735  d :     0.011184
      dxz     :     0.002822
      dyz     :     0.000713
      dx2y2   :     0.001593
      dxy     :     0.002321

 11 B s       :     3.796105  s :     3.796105
      pz      :     0.359391  p :     1.192704
      px      :     0.324937
      py      :     0.508376
      dz2     :     0.003735  d :     0.011184
      dxz     :     0.001240
      dyz     :     0.002295
      dx2y2   :     0.002139
      dxy     :     0.001775



                     *******************************
                     * LOEWDIN POPULATION ANALYSIS *
                     *******************************

----------------------
LOEWDIN ATOMIC CHARGES
----------------------
   0 B :    0.000017
   1 B :   -0.000009
   2 B :   -0.000009
   3 B :    0.000017
   4 B :   -0.000009
   5 B :   -0.000009
   6 B :   -0.000009
   7 B :    0.000017
   8 B :   -0.000009
   9 B :   -0.000009
  10 B :    0.000017
  11 B :   -0.000009

-------------------------------
LOEWDIN REDUCED ORBITAL CHARGES
-------------------------------
  0 B s       :     3.549358  s :     3.549358
      pz      :     0.459718  p :     1.430280
      px      :     0.277052
      py      :     0.693510
      dz2     :     0.006453  d :     0.020345
      dxz     :     0.000975
      dyz     :     0.006293
      dx2y2   :     0.002573
      dxy     :     0.004050

  1 B s       :     3.549365  s :     3.549365
      pz      :     0.459735  p :     1.430298
      px      :     0.589377
      py      :     0.381187
      dz2     :     0.006453  d :     0.020345
      dxz     :     0.004964
      dyz     :     0.002305
      dx2y2   :     0.003681
      dxy     :     0.002942

  2 B s       :     3.549365  s :     3.549365
      pz      :     0.459735  p :     1.430298
      px      :     0.589377
      py      :     0.381187
      dz2     :     0.006453  d :     0.020345
      dxz     :     0.004964
      dyz     :     0.002305
      dx2y2   :     0.003681
      dxy     :     0.002942

  3 B s       :     3.549358  s :     3.549358
      pz      :     0.459718  p :     1.430280
      px      :     0.277052
      py      :     0.693510
      dz2     :     0.006453  d :     0.020345
      dxz     :     0.000975
      dyz     :     0.006293
      dx2y2   :     0.002573
      dxy     :     0.004050

  4 B s       :     3.549365  s :     3.549365
      pz      :     0.459735  p :     1.430298
      px      :     0.589377
      py      :     0.381187
      dz2     :     0.006453  d :     0.020345
      dxz     :     0.004964
      dyz     :     0.002305
      dx2y2   :     0.003681
      dxy     :     0.002942

  5 B s       :     3.549365  s :     3.549365
      pz      :     0.459735  p :     1.430298
      px      :     0.589377
      py      :     0.381187
      dz2     :     0.006453  d :     0.020345
      dxz     :     0.004964
      dyz     :     0.002305
      dx2y2   :     0.003681
      dxy     :     0.002942

  6 B s       :     3.549365  s :     3.549365
      pz      :     0.459735  p :     1.430298
      px      :     0.381187
      py      :     0.589377
      dz2     :     0.006453  d :     0.020345
      dxz     :     0.002305
      dyz     :     0.004964
      dx2y2   :     0.003681
      dxy     :     0.002942

  7 B s       :     3.549358  s :     3.549358
      pz      :     0.459718  p :     1.430280
      px      :     0.693510
      py      :     0.277052
      dz2     :     0.006453  d :     0.020345
      dxz     :     0.006293
      dyz     :     0.000975
      dx2y2   :     0.002573
      dxy     :     0.004050

  8 B s       :     3.549365  s :     3.549365
      pz      :     0.459735  p :     1.430298
      px      :     0.381187
      py      :     0.589377
      dz2     :     0.006453  d :     0.020345
      dxz     :     0.002305
      dyz     :     0.004964
      dx2y2   :     0.003681
      dxy     :     0.002942

  9 B s       :     3.549365  s :     3.549365
      pz      :     0.459735  p :     1.430298
      px      :     0.381187
      py      :     0.589377
      dz2     :     0.006453  d :     0.020345
      dxz     :     0.002305
      dyz     :     0.004964
      dx2y2   :     0.003681
      dxy     :     0.002942

 10 B s       :     3.549358  s :     3.549358
      pz      :     0.459718  p :     1.430280
      px      :     0.693510
      py      :     0.277052
      dz2     :     0.006453  d :     0.020345
      dxz     :     0.006293
      dyz     :     0.000975
      dx2y2   :     0.002573
      dxy     :     0.004050

 11 B s       :     3.549365  s :     3.549365
      pz      :     0.459735  p :     1.430298
      px      :     0.381187
      py      :     0.589377
      dz2     :     0.006453  d :     0.020345
      dxz     :     0.002305
      dyz     :     0.004964
      dx2y2   :     0.003681
      dxy     :     0.002942



                      *****************************
                      * MAYER POPULATION ANALYSIS *
                      *****************************

  NA   - Mulliken gross atomic population
  ZA   - Total nuclear charge
  QA   - Mulliken gross atomic charge
  VA   - Mayer's total valence
  BVA  - Mayer's bonded valence
  FA   - Mayer's free valence

  ATOM       NA         ZA         QA         VA         BVA        FA
  0 B      5.0000     5.0000    -0.0000     2.1050     2.1050    -0.0000
  1 B      5.0000     5.0000     0.0000     2.1050     2.1050    -0.0000
  2 B      5.0000     5.0000     0.0000     2.1050     2.1050    -0.0000
  3 B      5.0000     5.0000    -0.0000     2.1050     2.1050     0.0000
  4 B      5.0000     5.0000     0.0000     2.1050     2.1050    -0.0000
  5 B      5.0000     5.0000     0.0000     2.1050     2.1050    -0.0000
  6 B      5.0000     5.0000     0.0000     2.1050     2.1050    -0.0000
  7 B      5.0000     5.0000    -0.0000     2.1050     2.1050     0.0000
  8 B      5.0000     5.0000     0.0000     2.1050     2.1050    -0.0000
  9 B      5.0000     5.0000     0.0000     2.1050     2.1050    -0.0000
 10 B      5.0000     5.0000    -0.0000     2.1050     2.1050     0.0000
 11 B      5.0000     5.0000     0.0000     2.1050     2.1050    -0.0000

  Mayer bond orders larger than 0.100000
B(  0-B ,  1-B ) :   0.3417 B(  0-B ,  2-B ) :   0.1077 B(  0-B ,  4-B ) :   0.1077 
B(  0-B ,  5-B ) :   0.3417 B(  0-B ,  6-B ) :   0.3265 B(  0-B ,  7-B ) :   0.1590 
B(  0-B , 10-B ) :   0.1590 B(  0-B , 11-B ) :   0.3265 B(  1-B ,  2-B ) :   0.3417 
B(  1-B ,  3-B ) :   0.1077 B(  1-B ,  5-B ) :   0.1077 B(  1-B ,  6-B ) :   0.3265 
B(  1-B ,  7-B ) :   0.3265 B(  1-B ,  8-B ) :   0.1590 B(  1-B , 11-B ) :   0.1590 
B(  2-B ,  3-B ) :   0.3417 B(  2-B ,  4-B ) :   0.1077 B(  2-B ,  6-B ) :   0.1590 
B(  2-B ,  7-B ) :   0.3265 B(  2-B ,  8-B ) :   0.3265 B(  2-B ,  9-B ) :   0.1590 
B(  3-B ,  4-B ) :   0.3417 B(  3-B ,  5-B ) :   0.1077 B(  3-B ,  7-B ) :   0.1590 
B(  3-B ,  8-B ) :   0.3265 B(  3-B ,  9-B ) :   0.3265 B(  3-B , 10-B ) :   0.1590 
B(  4-B ,  5-B ) :   0.3417 B(  4-B ,  8-B ) :   0.1590 B(  4-B ,  9-B ) :   0.3265 
B(  4-B , 10-B ) :   0.3265 B(  4-B , 11-B ) :   0.1590 B(  5-B ,  6-B ) :   0.1590 
B(  5-B ,  9-B ) :   0.1590 B(  5-B , 10-B ) :   0.3265 B(  5-B , 11-B ) :   0.3265 
B(  6-B ,  7-B ) :   0.3417 B(  6-B ,  8-B ) :   0.1077 B(  6-B , 10-B ) :   0.1077 
B(  6-B , 11-B ) :   0.3417 B(  7-B ,  8-B ) :   0.3417 B(  7-B ,  9-B ) :   0.1077 
B(  7-B , 11-B ) :   0.1077 B(  8-B ,  9-B ) :   0.3417 B(  8-B , 10-B ) :   0.1077 
B(  9-B , 10-B ) :   0.3417 B(  9-B , 11-B ) :   0.1077 B( 10-B , 11-B ) :   0.3417 


-------
TIMINGS
-------

Total SCF time: 0 days 0 hours 0 min 11 sec 

Total time                  ....      11.839 sec
Sum of individual times     ....      11.424 sec  ( 96.5%)

SCF preparation             ....       0.889 sec  (  7.5%)
Fock matrix formation       ....       6.405 sec  ( 54.1%)
  Startup                   ....       0.079 sec  (  1.2% of F)
  Split-RI-J                ....       1.781 sec  ( 27.8% of F)
  XC integration            ....       4.279 sec  ( 66.8% of F)
    XC Preparation          ....       0.000 sec  (  0.0% of XC)
    Basis function eval.    ....       0.582 sec  ( 13.6% of XC)
    Density eval.           ....       0.288 sec  (  6.7% of XC)
    XC-Functional eval.     ....       0.074 sec  (  1.7% of XC)
    XC-Potential eval.      ....       0.382 sec  (  8.9% of XC)
Diagonalization             ....       0.000 sec  (  0.0%)
Density matrix formation    ....       1.178 sec  (  9.9%)
Total Energy calculation    ....       0.485 sec  (  4.1%)
Population analysis         ....       0.154 sec  (  1.3%)
Orbital Transformation      ....       0.572 sec  (  4.8%)
Orbital Orthonormalization  ....       0.000 sec  (  0.0%)
DIIS solution               ....       1.353 sec  ( 11.4%)
SOSCF solution              ....       0.388 sec  (  3.3%)
Finished LeanSCF after  11.9 sec

Maximum memory used throughout the entire LEANSCF-calculation: 9.7 MB


-------------------------------------------------------------------------------
                          DFT DISPERSION CORRECTION                            
                                                                               
                              DFTD3 V3.1  Rev 1                                
                          USING Becke-Johnson damping                          
-------------------------------------------------------------------------------
The BP86 functional is recognized
Active option DFTDOPT                   ...         4   

molecular C6(AA) [au] = 15038.753905 


            DFT-D V3
 parameters
 s6 scaling factor         :     1.0000 
 a1 scaling factor         :     0.3946 
 s8 scaling factor         :     3.2822 
 a2 scaling factor         :     4.8516 
 ad hoc parameters k1-k3   :    16.0000     1.3333    -4.0000 

 Edisp/kcal,au: -44.787040370346  -0.071372684308 
 E6   /kcal   : -13.426823326 
 E8   /kcal   : -31.360217045 
 % E8         :  70.020739896 

-------------------------   ----------------
Dispersion correction           -0.071372684
-------------------------   ----------------


-------------------------   --------------------
FINAL SINGLE POINT ENERGY      -296.363090303912
-------------------------   --------------------



           ************************************************************
           *        Program running with 8 parallel MPI-processes     *
           *              working on a common directory               *
           ************************************************************
------------------------------------------------------------------------------
                         ORCA SCF GRADIENT CALCULATION
------------------------------------------------------------------------------

Nuc. rep. gradient        (SHARK) ... done (  0.0 sec)
HCore & Overlap gradient  (SHARK) ... done (  0.1 sec)
Split-RIJ-J gradient      (SHARK) ... done (  0.4 sec)
XC gradient                       ... done (  0.8 sec)
Dispersion correction             ... done (  0.1 sec)

-------------------
DISPERSION GRADIENT
-------------------

   1   B   :    0.001479060   -0.000000000    0.000225114
   2   B   :    0.000739530    0.001280903    0.000225114
   3   B   :   -0.000739530    0.001280903    0.000225114
   4   B   :   -0.001479060    0.000000000    0.000225114
   5   B   :   -0.000739530   -0.001280903    0.000225114
   6   B   :    0.000739530   -0.001280903    0.000225114
   7   B   :    0.001280903    0.000739530   -0.000225114
   8   B   :   -0.000000000    0.001479060   -0.000225114
   9   B   :   -0.001280903    0.000739530   -0.000225114
  10   B   :   -0.001280903   -0.000739530   -0.000225114
  11   B   :    0.000000000   -0.001479060   -0.000225114
  12   B   :    0.001280903   -0.000739530   -0.000225114

Difference to translation invariance:
           :   -0.0000000000    0.0000000000    0.0000000000

Difference to rotation invariance:
           :   -0.0000000000   -0.0000000000   -0.0000000000

Norm of the Dispersion gradient    ...    0.0051826180
RMS gradient                       ...    0.0008637697
MAX gradient                       ...    0.0014790597

------------------
CARTESIAN GRADIENT
------------------

   1   B   :    0.025689654   -0.000000002    0.037041295
   2   B   :    0.012857327    0.022322847    0.037060199
   3   B   :   -0.012857324    0.022322846    0.037060202
   4   B   :   -0.025689654    0.000000000    0.037041295
   5   B   :   -0.012857327   -0.022322847    0.037060199
   6   B   :    0.012857324   -0.022322846    0.037060201
   7   B   :    0.022322847    0.012857328   -0.037060200
   8   B   :   -0.000000001    0.025689652   -0.037041296
   9   B   :   -0.022322846    0.012857325   -0.037060200
  10   B   :   -0.022322846   -0.012857328   -0.037060199
  11   B   :   -0.000000000   -0.025689651   -0.037041295
  12   B   :    0.022322846   -0.012857324   -0.037060199

Difference to translation invariance:
           :    0.0000000000   -0.0000000000    0.0000000000

Difference to rotation invariance:
           :    0.0000000062    0.0000000026    0.0000000045

Norm of the Cartesian gradient     ...    0.1562840135
RMS gradient                       ...    0.0260473356
MAX gradient                       ...    0.0370602019

-------
TIMINGS
-------

Total SCF gradient time     ....        1.300 sec

Densities                   ....       0.001 sec  (  0.1%)
One electron gradient       ....       0.053 sec  (  4.1%)
RI-J Coulomb gradient       ....       0.372 sec  ( 28.6%)
XC gradient                 ....       0.804 sec  ( 61.8%)

Maximum memory used throughout the entire SCFGRAD-calculation: 29.4 MB
------------------------------------------------------------------------------
                         ORCA GEOMETRY RELAXATION STEP
------------------------------------------------------------------------------

Reading the OPT-File                    .... done
Getting information on internals        .... done
Copying old internal coords+grads       .... done
Making the new internal coordinates     .... (2022 redundants) done
Validating the new internal coordinates .... (2022 redundants) done
Calculating the B-matrix                .... done
Calculating the G,G- and P matrices     .... done
Transforming gradient to internals      .... done
Projecting the internal gradient        .... done
Number of atoms                         ....  12
Number of internal coordinates          .... 240
Current Energy                          ....  -296.363090304 Eh
Current gradient norm                   ....     0.156284014 Eh/bohr
Maximum allowed component of the step   ....  0.300
Current trust radius                    ....  0.300
Evaluating the initial hessian          ....  (Almloef) done
Projecting the Hessian                  .... done
Forming the augmented Hessian           .... done
Diagonalizing the augmented Hessian     .... done
Last element of RFO vector              ....  0.727936971
Lowest eigenvalues of augmented Hessian:
 -0.096022522  0.014993987  0.015012385  0.015702431  0.015718341
Length of the computed step             ....  0.941900300
Warning: the length of the step is outside the trust region - taking restricted step instead
The input lambda is                     ....     0.010860
   iter:   5  x=    0.004264  g=156629.362697 f(x)=   396.694013
   iter:  10  x=   -0.045604  g=  360.179030 f(x)=     6.854786
   iter:  15  x=   -0.291618  g=    1.412918 f(x)=     0.083115
   iter:  20  x=   -0.327607  g=    0.529584 f(x)=     0.000000
The output lambda is                    ....    -0.327607 (21 iterations)
The final length of the internal step   ....  0.300000000
Converting the step to Cartesian space:
 Initial RMS(Int)=    0.0193649167
Transforming coordinates:
 Iter   0:  RMS(Cart)=    0.0378093478 RMS(Int)=    0.0193649228
done
Storing new coordinates                 .... done

                                .--------------------.
          ----------------------|Geometry convergence|-------------------------
          Item                value                   Tolerance       Converged
          ---------------------------------------------------------------------
          RMS gradient        0.0065827403            0.0001000000      NO
          MAX gradient        0.0216310161            0.0003000000      NO
          RMS step            0.0193649167            0.0020000000      NO
          MAX step            0.0631332468            0.0040000000      NO
          -------------------------------------------------------------------------
          ........................................................
          Max(Bonds)      0.0334      Max(Angles)    0.10
          Max(Dihed)        0.06      Max(Improp)    0.00
          ---------------------------------------------------------------------

The optimization has not yet converged - more geometry cycles are needed


    ---------------------------------------------------------------------------
                         Redundant Internal Coordinates
                            (Angstroem and degrees)

        Definition                    Value    dE/dq     Step     New-Value
    ----------------------------------------------------------------------------
     1. B(B   1,B   0)                2.6237  0.020061 -0.0315    2.5922   
     2. B(B   2,B   1)                2.6237  0.020023 -0.0314    2.5922   
     3. B(B   3,B   2)                2.6237  0.020067 -0.0315    2.5922   
     4. B(B   4,B   3)                2.6237  0.020057 -0.0315    2.5922   
     5. B(B   5,B   0)                2.6237  0.020027 -0.0314    2.5922   
     6. B(B   5,B   4)                2.6237  0.019946 -0.0313    2.5923   
     7. B(B   6,B   1)                2.5000  0.021494 -0.0332    2.4668   
     8. B(B   6,B   0)                2.5000  0.021532 -0.0333    2.4667   
     9. B(B   7,B   6)                2.6237  0.020067 -0.0315    2.5922   
    10. B(B   7,B   1)                2.5000  0.021516 -0.0333    2.4667   
    11. B(B   7,B   2)                2.5000  0.021567 -0.0333    2.4667   
    12. B(B   8,B   3)                2.5000  0.021550 -0.0333    2.4667   
    13. B(B   8,B   7)                2.6237  0.020080 -0.0315    2.5922   
    14. B(B   8,B   2)                2.5000  0.021562 -0.0333    2.4667   
    15. B(B   9,B   8)                2.6237  0.020025 -0.0314    2.5922   
    16. B(B   9,B   3)                2.5000  0.021507 -0.0333    2.4667   
    17. B(B   9,B   4)                2.5000  0.021528 -0.0333    2.4667   
    18. B(B  10,B   5)                2.5000  0.021575 -0.0333    2.4667   
    19. B(B  10,B   9)                2.6237  0.020034 -0.0315    2.5922   
    20. B(B  10,B   4)                2.5000  0.021571 -0.0333    2.4667   
    21. B(B  11,B   6)                2.6237  0.019980 -0.0314    2.5923   
    22. B(B  11,B   5)                2.5000  0.021631 -0.0334    2.4666   
    23. B(B  11,B  10)                2.6237  0.019958 -0.0314    2.5923   
    24. B(B  11,B   0)                2.5000  0.021535 -0.0333    2.4667   
    25. A(B   1,B   0,B   5)          120.00  0.000023   -0.00    120.00   
    26. A(B   5,B   0,B  11)           58.35  0.000343   -0.05     58.30   
    27. A(B   5,B   0,B   6)          112.59 -0.000198    0.03    112.62   
[...]
      dyz     :     0.011612
      dx2y2   :     0.010421
      dxy     :     0.009040

  9 B s       :     2.724895  s :     2.724895
      pz      :     0.756006  p :     2.218887
      px      :     0.662852
      py      :     0.800029
      dz2     :     0.014556  d :     0.056174
      dxz     :     0.010544
      dyz     :     0.011603
      dx2y2   :     0.010426
      dxy     :     0.009045

 10 B s       :     2.725175  s :     2.725175
      pz      :     0.755744  p :     2.218242
      px      :     0.868824
      py      :     0.593674
      dz2     :     0.014549  d :     0.056146
      dxz     :     0.012126
      dyz     :     0.009982
      dx2y2   :     0.008383
      dxy     :     0.011107

 11 B s       :     2.725774  s :     2.725774
      pz      :     0.755949  p :     2.218411
      px      :     0.662435
      py      :     0.800027
      dz2     :     0.014559  d :     0.056154
      dxz     :     0.010540
      dyz     :     0.011610
      dx2y2   :     0.010409
      dxy     :     0.009037



                     *******************************
                     * LOEWDIN POPULATION ANALYSIS *
                     *******************************

----------------------
LOEWDIN ATOMIC CHARGES
----------------------
   0 B :   -0.000818
   1 B :    0.000412
   2 B :    0.000082
   3 B :   -0.000542
   4 B :    0.000223
   5 B :    0.000159
   6 B :    0.000450
   7 B :   -0.000660
   8 B :    0.000591
   9 B :    0.000141
  10 B :   -0.000421
  11 B :    0.000385

-------------------------------
LOEWDIN REDUCED ORBITAL CHARGES
-------------------------------
  0 B s       :     2.674953  s :     2.674953
      pz      :     0.791283  p :     2.182902
      px      :     0.524000
      py      :     0.867620
      dz2     :     0.040562  d :     0.142963
      dxz     :     0.016629
      dyz     :     0.034133
      dx2y2   :     0.021127
      dxy     :     0.030512

  1 B s       :     2.675305  s :     2.675305
      pz      :     0.791218  p :     2.181322
      px      :     0.781309
      py      :     0.608795
      dz2     :     0.040564  d :     0.142962
      dxz     :     0.029768
      dyz     :     0.021030
      dx2y2   :     0.028145
      dxy     :     0.023455

  2 B s       :     2.675198  s :     2.675198
      pz      :     0.791240  p :     2.181714
      px      :     0.781405
      py      :     0.609069
      dz2     :     0.040564  d :     0.143006
      dxz     :     0.029771
      dyz     :     0.021049
      dx2y2   :     0.028156
      dxy     :     0.023467

  3 B s       :     2.675115  s :     2.675115
      pz      :     0.791024  p :     2.182532
      px      :     0.523911
      py      :     0.867596
      dz2     :     0.040542  d :     0.142895
      dxz     :     0.016621
      dyz     :     0.034125
      dx2y2   :     0.021105
      dxy     :     0.030503

  4 B s       :     2.675216  s :     2.675216
      pz      :     0.791169  p :     2.181565
      px      :     0.781397
      py      :     0.608999
      dz2     :     0.040586  d :     0.142996
      dxz     :     0.029797
      dyz     :     0.021017
      dx2y2   :     0.028132
      dxy     :     0.023464

  5 B s       :     2.675187  s :     2.675187
      pz      :     0.791073  p :     2.181594
      px      :     0.781338
      py      :     0.609182
      dz2     :     0.040552  d :     0.143061
      dxz     :     0.029807
      dyz     :     0.021042
      dx2y2   :     0.028182
      dxy     :     0.023478

  6 B s       :     2.675389  s :     2.675389
      pz      :     0.791205  p :     2.181218
      px      :     0.608785
      py      :     0.781228
      dz2     :     0.040553  d :     0.142943
      dxz     :     0.021029
      dyz     :     0.029771
      dx2y2   :     0.028142
      dxy     :     0.023448

  7 B s       :     2.675105  s :     2.675105
      pz      :     0.791157  p :     2.182701
      px      :     0.867485
      py      :     0.524059
      dz2     :     0.040552  d :     0.142854
      dxz     :     0.034099
      dyz     :     0.016626
      dx2y2   :     0.021091
      dxy     :     0.030486

  8 B s       :     2.675418  s :     2.675418
      pz      :     0.791322  p :     2.181077
      px      :     0.608584
      py      :     0.781170
      dz2     :     0.040567  d :     0.142915
      dxz     :     0.021021
      dyz     :     0.029756
      dx2y2   :     0.028127
      dxy     :     0.023444

  9 B s       :     2.675286  s :     2.675286
      pz      :     0.791298  p :     2.181635
      px      :     0.609153
      py      :     0.781184
      dz2     :     0.040552  d :     0.142937
      dxz     :     0.021043
      dyz     :     0.029748
      dx2y2   :     0.028149
      dxy     :     0.023445

 10 B s       :     2.675154  s :     2.675154
      pz      :     0.791320  p :     2.182373
      px      :     0.867552
      py      :     0.523501
      dz2     :     0.040558  d :     0.142894
      dxz     :     0.034114
      dyz     :     0.016622
      dx2y2   :     0.021104
      dxy     :     0.030494

 11 B s       :     2.675386  s :     2.675386
      pz      :     0.791282  p :     2.181375
      px      :     0.608886
      py      :     0.781206
      dz2     :     0.040573  d :     0.142854
      dxz     :     0.021007
      dyz     :     0.029746
      dx2y2   :     0.028105
      dxy     :     0.023423



                      *****************************
                      * MAYER POPULATION ANALYSIS *
                      *****************************

  NA   - Mulliken gross atomic population
  ZA   - Total nuclear charge
  QA   - Mulliken gross atomic charge
  VA   - Mayer's total valence
  BVA  - Mayer's bonded valence
  FA   - Mayer's free valence

  ATOM       NA         ZA         QA         VA         BVA        FA
  0 B      4.9979     5.0000     0.0021     4.2256     4.2256     0.0000
  1 B      5.0007     5.0000    -0.0007     4.2283     4.2283     0.0000
  2 B      5.0004     5.0000    -0.0004     4.2283     4.2283     0.0000
  3 B      4.9985     5.0000     0.0015     4.2255     4.2255     0.0000
  4 B      5.0005     5.0000    -0.0005     4.2283     4.2283     0.0000
  5 B      5.0004     5.0000    -0.0004     4.2287     4.2287    -0.0000
  6 B      5.0021     5.0000    -0.0021     4.2293     4.2293     0.0000
  7 B      4.9976     5.0000     0.0024     4.2240     4.2240     0.0000
  8 B      5.0020     5.0000    -0.0020     4.2291     4.2291     0.0000
  9 B      5.0000     5.0000     0.0000     4.2271     4.2271     0.0000
 10 B      4.9996     5.0000     0.0004     4.2265     4.2265     0.0000
 11 B      5.0003     5.0000    -0.0003     4.2269     4.2269     0.0000

  Mayer bond orders larger than 0.100000
B(  0-B ,  1-B ) :   1.0025 B(  0-B ,  2-B ) :   0.1775 B(  0-B ,  4-B ) :   0.1779 
B(  0-B ,  5-B ) :   1.0032 B(  0-B ,  6-B ) :   0.7535 B(  0-B ,  7-B ) :   0.1193 
B(  0-B , 10-B ) :   0.1193 B(  0-B , 11-B ) :   0.7544 B(  1-B ,  2-B ) :   1.0024 
B(  1-B ,  3-B ) :   0.1777 B(  1-B ,  5-B ) :   0.1793 B(  1-B ,  6-B ) :   0.7547 
B(  1-B ,  7-B ) :   0.7540 B(  1-B ,  8-B ) :   0.1194 B(  1-B , 11-B ) :   0.1195 
B(  2-B ,  3-B ) :   1.0031 B(  2-B ,  4-B ) :   0.1791 B(  2-B ,  6-B ) :   0.1196 
B(  2-B ,  7-B ) :   0.7538 B(  2-B ,  8-B ) :   0.7547 B(  2-B ,  9-B ) :   0.1195 
B(  3-B ,  4-B ) :   1.0026 B(  3-B ,  5-B ) :   0.1775 B(  3-B ,  7-B ) :   0.1196 
B(  3-B ,  8-B ) :   0.7539 B(  3-B ,  9-B ) :   0.7537 B(  3-B , 10-B ) :   0.1196 
B(  4-B ,  5-B ) :   1.0024 B(  4-B ,  8-B ) :   0.1191 B(  4-B ,  9-B ) :   0.7547 
B(  4-B , 10-B ) :   0.7543 B(  4-B , 11-B ) :   0.1193 B(  5-B ,  6-B ) :   0.1198 
B(  5-B ,  9-B ) :   0.1198 B(  5-B , 10-B ) :   0.7533 B(  5-B , 11-B ) :   0.7547 
B(  6-B ,  7-B ) :   1.0032 B(  6-B ,  8-B ) :   0.1795 B(  6-B , 10-B ) :   0.1776 
B(  6-B , 11-B ) :   1.0029 B(  7-B ,  8-B ) :   1.0032 B(  7-B ,  9-B ) :   0.1765 
B(  7-B , 11-B ) :   0.1766 B(  8-B ,  9-B ) :   1.0023 B(  8-B , 10-B ) :   0.1781 
B(  9-B , 10-B ) :   1.0038 B(  9-B , 11-B ) :   0.1782 B( 10-B , 11-B ) :   1.0026 


-------
TIMINGS
-------

Total SCF time: 0 days 0 hours 0 min 5 sec 

Total time                  ....       5.038 sec
Sum of individual times     ....       4.451 sec  ( 88.4%)

SCF preparation             ....       0.582 sec  ( 11.5%)
Fock matrix formation       ....       2.902 sec  ( 57.6%)
  Startup                   ....       0.072 sec  (  2.5% of F)
  Split-RI-J                ....       0.958 sec  ( 33.0% of F)
  XC integration            ....       2.050 sec  ( 70.7% of F)
    XC Preparation          ....       0.000 sec  (  0.0% of XC)
    Basis function eval.    ....       0.392 sec  ( 19.1% of XC)
    Density eval.           ....       0.318 sec  ( 15.5% of XC)
    XC-Functional eval.     ....       0.048 sec  (  2.4% of XC)
    XC-Potential eval.      ....       0.376 sec  ( 18.3% of XC)
Diagonalization             ....       0.000 sec  (  0.0%)
Density matrix formation    ....       0.055 sec  (  1.1%)
Total Energy calculation    ....       0.050 sec  (  1.0%)
Population analysis         ....       0.195 sec  (  3.9%)
Orbital Transformation      ....       0.032 sec  (  0.6%)
Orbital Orthonormalization  ....       0.000 sec  (  0.0%)
DIIS solution               ....       0.448 sec  (  8.9%)
SOSCF solution              ....       0.189 sec  (  3.7%)
Finished LeanSCF after   5.2 sec

Maximum memory used throughout the entire LEANSCF-calculation: 11.6 MB


-------------------------------------------------------------------------------
                          DFT DISPERSION CORRECTION                            
                                                                               
                              DFTD3 V3.1  Rev 1                                
                          USING Becke-Johnson damping                          
-------------------------------------------------------------------------------
The BP86 functional is recognized
Active option DFTDOPT                   ...         4   

molecular C6(AA) [au] = 4067.175906 


            DFT-D V3
 parameters
 s6 scaling factor         :     1.0000 
 a1 scaling factor         :     0.3946 
 s8 scaling factor         :     3.2822 
 a2 scaling factor         :     4.8516 
 ad hoc parameters k1-k3   :    16.0000     1.3333    -4.0000 

 Edisp/kcal,au: -22.784804977316  -0.036309894095 
 E6   /kcal   :  -6.462093303 
 E8   /kcal   : -16.322711674 
 % E8         :  71.638584094 

-------------------------   ----------------
Dispersion correction           -0.036309894
-------------------------   ----------------


-------------------------   --------------------
FINAL SINGLE POINT ENERGY      -297.694544630228
-------------------------   --------------------

                                *** OPTIMIZATION RUN DONE ***



           ************************************************************
           *        Program running with 8 parallel MPI-processes     *
           *              working on a common directory               *
           ************************************************************

------------------------------------------------------------------------------
                              ORCA PROPERTY CALCULATIONS
------------------------------------------------------------------------------

GBWName                                 ... hex_antiprism_nn2.50.gbw
Number of atoms                         ...     12
Number of basis functions               ...    168
Max core memory                         ...   2500 MB

Electric properties:
Dipole moment                           ... YES
Quadrupole moment                       ...  NO
Static polarizability (Dipole/Dipole)   ...  NO
Static polarizability (Dipole/Quad.)    ...  NO
Static polarizability (Quad./Quad.)     ...  NO
Static polarizability (Velocity)        ...  NO
Static hyperpolarizability              ...  NO

Atomic electric properties:
Dipole moment                           ...  NO
Quadrupole moment                       ...  NO
Static polarizability                   ...  NO

Choice of electric origin               ... Center of mass
Position of electric origin             ...    -0.000000     0.000000     0.000000

General magnetic properties:
Magnetizability                         ...  NO

EPR properties:
g-Tensor (aka g-matrix)                 ...  NO
Zero-Field splitting spin-orbit         ...  NO
Zero-field splitting spin-spin          ...  NO
Hyperfine couplings                     ...  NO (   0 nuclei)
Quadrupole couplings                    ...  NO (   0 nuclei)
Contact density                         ...  NO (   0 nuclei)

NMR properties:
Chemical shifts                         ...  NO (   0 nuclei)
Spin-rotation constants                 ...  NO (   0 nuclei)
Spin-spin couplings                     ...  NO (   0 nuclei,    0 pairs)

Choice of magnetic origin               ... GIAO
Position of magnetic origin             ...     0.000000     0.000000     0.000000

Properties with geometric perturbations:
SCF Hessian                             ...  NO
IR spectrum                             ...  NO
VCD spectrum                            ...  NO
X-ray spectroscopy properties:
SCF XES/XAS/RIXS spectra                ...  NO

SCF SOC stabilization energy            ...  NO
Diagonal Born-Oppenheimer correction    ...  NO

-------------
DIPOLE MOMENT
-------------

Method             : SCF
Type of density    : Electron Density
Multiplicity       :   1
Irrep              :   0
Energy             :  -297.6582347361326129 Eh
Basis              : AO
                                X                 Y                 Z
Electronic contribution:     -0.000098879       0.000196282       0.000550385
Nuclear contribution   :     -0.000000000       0.000000000       0.000000000
                        -----------------------------------------
Total Dipole Moment    :     -0.000098879       0.000196282       0.000550385
                        -----------------------------------------
Magnitude (a.u.)       :      0.000592645
Magnitude (Debye)      :      0.001506383



--------------------
Rotational spectrum 
--------------------
 
Rotational constants in cm-1:             0.068522             0.068516             0.048301 
Rotational constants in MHz :          2054.226883          2054.067194          1448.014610 

Dipole components along the rotational axes: 
x,y,z [a.u.] :    -0.000201    -0.000089     0.000550 
x,y,z [Debye]:    -0.000510    -0.000227     0.001399 

 

Dipole moment calculation done in   0.0 sec 

Maximum memory used throughout the entire PROP-calculation: 9.2 MB

--------------------------------
SUGGESTED CITATIONS FOR THIS RUN
--------------------------------

Below you find a list of papers that are relevant to this ORCA run
We neither can nor want to force you to cite these papers, but we appreciate if you do
You receive ORCA, which is the product of decades of hard work by many enthusiastic individuals, for free
The only thing we kindly ask in return is that you cite our papers,
We deeply appreciate it, if you show your appreciation for ORCA by not just citing the generic ORCA reference.

Please note that relegating all ORCA citations to the supporting information does *not* help us.
SI sections are not indexed - citations you put there will not count into any citation statistics
But we need these citations in order to attract the funding resources that allow us to do what we are doing

Therefore, if you are a happy ORCA user, please consider citing a few of the papers listed below in the main body of your paper

In addition to the list printed below, the program has created the file hex_antiprism_nn2.50.bibtex that contains the list in bibtex format
You can import this file easily into all common literature databanks and citation aid programs

It goes without saying that in many instances, there are alternative algorithms to achieve similar
results as the ones you have gotten from ORCA. It is, of course, also the case that in some instances
ORCA just re-implements algorithms worked out by others. We are fully aware of that and we are also
fully appreciative of our colleagues work. Hence this citation list should not be read as indicating
that the listed papers, which are focused on our own work, are the only ones worth citing. It simply
meant to make it easier for users to cite ORCA specific papers. It is not a substitute for doing your
own literature research and citing the relevant literature in a scientifically appropriate manner.

List of essential papers. We consider these as the minimum necessary citations

  1. Neese, F.
     Software update: the ORCA program system, version 6.0
     WIRES Comput. Molec. Sci. 2025 15(1), e70019
     doi.org/10.1002/wcms.70019

List of papers to cite with high priority. The work reported in these papers was absolutely
necessary for this run to complete.
Our perspective: the developers of density functionals and basis sets usually get cited in chemistry papers
Good! But without the algorithms to do something with them, the functionals or basis sets would not do anything.
Hence, in our opinion, the algorithm design and method developments papers are equally worthy of getting cited

  1. Neese, F.
     An improvement of the resolution of the identity approximation for the formation of the Coulomb matrix
     J. Comp. Chem. 2003 24(14), 1740-1747
     doi.org/10.1002/jcc.10318
  2. Grimme, S.; Antony, J.; Ehrlich, S.; Krieg, H.
     A consistent and accurate ab initio parametrization of density functional dispersion correction (DFT-D) for the 94 elements H-Pu
     J. Chem. Phys. 2010 132 , 154104
     doi.org/10.1063/1.3382344
  3. Grimme, S.; Ehrlich, S.; Goerigk, L.
     Effect of the damping function in dispersion corrected density functional theory
     J. Comput. Chem. 2011 32(7), 1456-1465
     doi.org/10.1002/jcc.21759
  4. Helmich-Paris, B.
     A trust-region augmented Hessian implementation for restricted and unrestricted Hartree–Fock and Kohn–Sham methods
     J. Chem. Phys. 2021 154 , 164104
     doi.org/10.1063/5.0040798
  5. Neese, F.
     The SHARK Integral Generation and Digestion System
     J. Comp. Chem. 2022 44(3), 381
     doi.org/10.1002/jcc.26942

List of suggested additional citations. These are papers that are important in the 'surrounding' of 
of this run, or papers that preceded the highly important papers. If you like your results we are grateful for a citation.

  1. Neese, F.
     The ORCA program system
     WIRES Comput. Molec. Sci. 2012 2(1), 73-78
     doi.org/10.1002/wcms.81
  2. Neese, F.
     Software update: the ORCA program system, version 4.0
     WIRES Comput. Molec. Sci. 2018 8(1), 1-6
     doi.org/10.1002/wcms.1327
  3. Neese, F.; Wennmohs, F.; Becker, U.; Riplinger, C.
     The ORCA quantum chemistry program package
     J. Chem. Phys. 2020 152(22), 224108
     doi.org/10.1063/5.0004608
  4. Neese, F.
     Software update: The ORCA program system—Version 5.0
     WIRES Comput. Molec. Sci. 2022 12(1), e1606
     doi.org/10.1002/wcms.1606

List of optional additional citations

  1. Neese, F.
     Approximate second-order SCF convergence for spin unrestricted wavefunctions
     Chem. Phys. Lett. 2000 325(1-3), 93-98
     doi.org/10.1016/s0009-2614(00)00662-x

Timings for individual modules:

Sum of individual times          ...      659.643 sec (=  10.994 min)
Startup calculation              ...       72.237 sec (=   1.204 min)  11.0 %
SCF iterations                   ...      496.368 sec (=   8.273 min)  75.2 %
Property calculations            ...        0.702 sec (=   0.012 min)   0.1 %
SCF Gradient evaluation          ...       89.541 sec (=   1.492 min)  13.6 %
Geometry relaxation              ...        0.795 sec (=   0.013 min)   0.1 %
                             ****ORCA TERMINATED NORMALLY****
TOTAL RUN TIME: 0 days 0 hours 11 minutes 28 seconds 586 msec
