
                                 *****************
                                 * O   R   C   A *
                                 *****************

                                            #,                                       
                                            ###                                      
                                            ####                                     
                                            #####                                    
                                            ######                                   
                                           ########,                                 
                                     ,,################,,,,,                         
                               ,,#################################,,                 
                          ,,##########################################,,             
                       ,#########################################, ''#####,          
                    ,#############################################,,   '####,        
                  ,##################################################,,,,####,       
                ,###########''''           ''''###############################       
              ,#####''   ,,,,##########,,,,          '''####'''          '####       
            ,##' ,,,,###########################,,,                        '##       
           ' ,,###''''                  '''############,,,                           
         ,,##''                                '''############,,,,        ,,,,,,###''
      ,#''                                            '''#######################'''  
     '                                                          ''''####''''         
             ,#######,   #######,   ,#######,      ##                                
            ,#'     '#,  ##    ##  ,#'     '#,    #''#        ,####,    ,#,          
            ##       ##  ##   ,#'  ##            #'  '#       #'       ,# #          
            ##       ##  #######   ##           ,######,      #####,      #          
            '#,     ,#'  ##    ##  '#,     ,#' ,#      #,     #,   #      #          
             '#######'   ##     ##  '#######'  #'      '#     '####' #    #          



                #########################################################
                #                        -***-                          #
                #          Department of theory and spectroscopy        #
                #                                                       #
                #                      Frank Neese                      #
                #                                                       #
                #     Directorship, Architecture, Infrastructure        #
                #                    SHARK, DRIVERS                     #
                #        Core code/Algorithms in most modules           #
                #                                                       #
                #        Max Planck Institute fuer Kohlenforschung      #
                #                Kaiser Wilhelm Platz 1                 #
                #                 D-45470 Muelheim/Ruhr                 #
                #                      Germany                          #
                #                                                       #
                #                  All rights reserved                  #
                #                        -***-                          #
                #########################################################


                         Program Version 6.1.1  -  RELEASE   -
                                (GIT: $487d211c$)
                          ($2025-11-21 10:33:24 +0100$)
                                                                         
                                  - NO-DMRG VERSION -                    
                                                                         


 With contributions from (in alphabetic order):
[Max-Planck-Institut fuer Kohlenforschung]                               
  Daniel Aravena         : Magnetic Suceptibility                        
  Michael Atanasov       : Ab Initio Ligand Field Theory (pilot matlab implementation)
  Alexander A. Auer      : GIAO ZORA, VPT2 properties, NMR spectrum      
  Ute Becker             : All parallelization in ORCA, NUMFREQ, NUMCALC 
  Giovanni Bistoni       : ED, misc. LED, open-shell LED, HFLD           
  Dmytro Bykov           : pre 5.0 version of the SCF Hessian            
  Marcos Casanova-Páez   : Triplet and SCS-CIS(D). UHF-(DLPNO)-IP/EA/STEOM-CCSD. UHF-CVS-IP/STEOM-CCSD   
  Vijay G. Chilkuri      : MRCI spin determinant printing, contributions to CSF-ICE 
  Pauline Colinet        : FMM embedding                                 
  Dipayan Datta          : RHF DLPNO-CCSD density                        
  Achintya Kumar Dutta   : EOM-CC, STEOM-CC                              
  Nicolas Foglia         : Exact transition moments, OPA infrastructure, MCD improvements    
  Dmitry Ganyushin       : Spin-Orbit,Spin-Spin,Magnetic field MRCI      
  Miquel Garcia-Rates    : C-PCM and meta-GGA Hessian, CCSD/C-PCM, Gaussian charge scheme 
  Tiago L. C. Gouveia    : GS-ROHF, GS-ROCIS                             
  Yang Guo               : DLPNO-NEVPT2, F12-NEVPT2, CIM, IAO-localization        
  Andreas Hansen         : Spin unrestricted coupled pair/coupled cluster methods 
  Ingolf Harden          : AUTO-CI MPn and infrastructure                
  Benjamin Helmich-Paris : MC-RPA, TRAH-(SCF,CASSCF), AVAS, COSX integrals, SCF dyn. polar., MC-PDFT, srDFT 
  Lee Huntington         : MR-EOM, pCC                                   
  Robert Izsak           : Overlap fitted RIJCOSX, COSX-SCS-MP3, EOM     
  Riya Kayal             : Wick's Theorem for AUTO-CI, AUTO-CI UHF-CCSDT 
  Emily Kempfer          : AUTO-CI RHF CISDT and CCSDT, approximate NEVPT4
  Christian Kollmar      : KDIIS, OOCD, Brueckner-CCSD(T), CCSD density, CASPT2, CASPT2-K, improved NEVPT2 
  Axel Koslowski         : Symmetry handling                             
  Simone Kossmann        : meta-GGA functionals, TD-DFT gradient, OOMP2, (MP2 Hessian; deprecated post 5.0) 
  Lucas Lang             : DCDCAS, Hyperfine gauge corrections, ICE-SOC+SSC
  Marvin Lechner         : AUTO-CI (C++ implementation), FIC-MRCC        
  Spencer Leger          : CASSCF response                               
  Dagmar Lenk            : GEPOL surface, SMD, ORCA-2-JSON               
  Dimitrios Liakos       : Extrapolation schemes; Compound Job, Property file
  Dimitrios Manganas     : Further ROCIS development; embedding schemes. LFT, Crystal Embedding 
  Dimitrios Pantazis     : SARC Basis sets                               
  Anastasios Papadopoulos: AUTO-CI, single reference methods and gradients 
  Taras Petrenko         : pre 6.0 DFT Hessian and TD-DFT gradient,  ECA, NRVS 
  Petra Pikulova         : Analytic Raman intensities                    
  Peter Pinski           : DLPNO-MP2, DLPNO-MP2 Gradient                 
  Shashank Vittal Rao    : ES-AILFT, MagRelax                            
  Christoph Reimann      : Effective Core Potentials                     
  Marius Retegan         : Local ZFS, SOC                                
  Christoph Riplinger    : Optimizer, TS searches, QM/MM, DLPNO-CCSD(T), (RO)-DLPNO pert. Triples 
  Michael Roemelt        : Original ROCIS implementation, recursive CI coupling coefficients
  Masaaki Saitow         : Open-shell DLPNO-CCSD energy and density      
  Barbara Sandhoefer     : DKH picture change effects                    
  Yorick L. A. Schmerwitz: GMF and freeze-and-release deltaSCF, NEB S-IDPP initial path                    
  Kantharuban Sivalingam : CASSCF convergence/infrastructure, NEVPT2, NEVPT3, NEVPT4(SD), FIC-MRCI and CEPA variants
  Bernardo de Souza      : ESD, SOC TD-DFT                               
  Georgi L. Stoychev     : AutoAux, RI-MP2 NMR, DLPNO-MP2 response, X2C  
  Van Anh Tran           : RI-MP2 g-tensors                              
  Willem Van den Heuvel  : Paramagnetic NMR                              
  Zikuan Wang            : NOTCH, Electric field optimization            
  Frank Wennmohs         : Technical directorship and infrastructure     
  Hang Xu                : AUTO-CI-Response properties                   
                                                                         
[FACCTs GmbH]                                                            
  Markus Bursch, Nicolas Foglia, Miquel Garcia-Rates, Ingolf Harden, Hagen Neugebauer, Anastasios Papadopoulos, 
  Christoph Riplinger, Bernardo de Souza, Georgi L. Stoychev                                                    
                                                                 
  APM, various basis sets, CI-OPT, improved COSX, DLPNO-Multilevel,           
  DOCKER, DRACO, updates on ESD, Fragmentator, GOAT, IRC, LR-CPCM, L-BFGS, MBIS, meta-GGA TD-DFT gradient, ML-optimized integration grids, 
  MM, NACMEs, nearIR, NEB, NEB-TS, NL-DFT gradient (VV10), 2- and 3-layer-ONIOM, interface openCOSMO-RS, QMMM,   
  Crystal-QMMM, RESP, rigid body optimization, SF, symmetry and pop. for TD-DFT, various functionals, SOLVATOR                                   
                                                                         
[Other institutions]                                                     
  V. Asgeirsson          : NEB                                           
  Christoph Bannwarth    : sTDA-DFT, sTD-DFT, PBEh-3c, B97-3c, D3        
  Giovanni Bistoni       : ETS/NOCV, ADLD/ADEX, COVALED                  
  Martin Brehm           : Molecular dynamics                            
  Ronald Cardenas        : ETS/NOCV                                      
  Martina Colucci        : COVALED                                       
  Sebastian Ehlert       : rSCAN, r2SCAN, r2SCAN-3c, D4, dhf basis sets  
  Marvin Friede          : D4 for Fr, Ra, Ac-Lr                          
  Lars Goerigk           : TD-DFT with DH, B97 family of functionals     
  Stefan Grimme          : VdW corrections, initial TS optimization, DFT functionals, gCP, sTDA/sTD-DF 
  Waldemar Hujo          : DFT-NL                                        
  H. Jonsson             : NEB                                           
  Holger Kruse           : gCP                                           
  Marcel Mueller         : wB97X-3c, vDZP basis set                      
  Hagen Neugebauer       : wr2SCAN, Native XTB                           
  Gianluca Regni         : ADLD/ADEX                                     
  Tobias Risthaus        : pre 6.0 range-separated hybrid DFT and stability analysis
  Lukas Wittmann         : regularized MP2, r2SCAN double-hybrids, wr2SCAN        
                                                                         
We gratefully acknowledge several colleagues who have allowed us to      
interface, adapt or use parts of their codes:                            
  Ed Valeev, F. Pavosevic, A. Kumar             : LibInt (2-el integral package), F12 methods 
  Garnet Chan, S. Sharma, J. Yang, R. Olivares  : DMRG                   
  Ulf Ekstrom                                   : XCFun DFT Library      
  Mihaly Kallay                                 : mrcc  (arbitrary order and MRCC methods)
  Frank Weinhold                                : gennbo (NPA and NBO analysis)           
  Simon Mueller                                 : openCOSMO-RS                            
  Christopher J. Cramer and Donald G. Truhlar   : smd solvation model                     
  S Lehtola, MJT Oliveira, MAL Marques          : LibXC Library                           
  Liviu Ungur et al                             : ANISO software                          


 Your calculation uses the libint2 library for the computation of 2-el integrals
 For citations please refer to: http://libint.valeyev.net

 Your ORCA version has been built with support for libXC version: 7.0.0
 For citations please refer to: https://libxc.gitlab.io

 This ORCA versions uses:
   CBLAS   interface :  Fast vector & matrix operations
   LAPACKE interface :  Fast linear algebra routines
   SCALAPACK package :  Parallel linear algebra routines
   Shared memory     :  Shared parallel matrices
   BLAS/LAPACK       :  OpenBLAS 0.3.29  USE64BITINT DYNAMIC_ARCH NO_AFFINITY Zen SINGLE_THREADED
        Core in use  :  Zen
   Copyright (c) 2011-2014, The OpenBLAS Project


  ***********************************
  * Starting time: Fri Apr 24 02:06:04 2026
  * Host name:     vmi3233575
  * Process ID:    1619006
  * Working dir.:  /root/b12_scan/jobs/random2_nn2.00
  ***********************************

NOTE: MaxCore=2500 MB was set to SCF,MP2,MDCI,CIPSI,MRCI,RASCI and CIS
      => If you want to overwrite this, your respective input block should be placed after the MaxCore statement
Your calculation utilizes the atom-pairwise dispersion correction
with the Becke-Johnson damping scheme (D3BJ)


================================================================================

----- Orbital basis set information -----
Your calculation utilizes the basis: def2-SVP
   F. Weigend and R. Ahlrichs, Phys. Chem. Chem. Phys. 7, 3297 (2005).

----- AuxJ basis set information -----
Your calculation utilizes the auxiliary basis: def2/J
   H-Rn: F. Weigend, Phys. Chem. Chem. Phys. 8, 1057 (2006).
   Fr-Lr: K. Eichkorn, F. Weigend, O. Treutler, R. Ahlrichs; Theor. Chem. Acc. 97, 119 (1997).

================================================================================
                                        WARNINGS
                       Please study these warnings very carefully!
================================================================================


WARNING: Geometry Optimization
  ===> : Switching off AutoStart
         For restart on a previous wavefunction, please use MOREAD

================================================================================
                                       INPUT FILE
================================================================================
NAME = random2_nn2.00.inp
|  1> ! BP86 def2-SVP def2/J RI Opt TightSCF D3BJ
|  2> ! SlowConv
|  3> 
|  4> %pal nprocs 8 end
|  5> %maxcore 2500
|  6> 
|  7> %geom
|  8>   MaxIter 300
|  9> end
| 10> 
| 11> * xyz 0 1
| 12> B     -1.43328815     -1.78080092      1.59254558
| 13> B     -2.63291444      0.35135384      0.98695602
| 14> B      1.36487206      0.08388940     -3.10259788
| 15> B     -0.22431302      0.84052372     -1.17465260
| 16> B     -0.51419475     -2.56717518     -1.71774139
| 17> B      0.33016558      2.40927785      1.31923532
| 18> B     -1.03363138      2.64261632     -0.83444303
| 19> B      2.72077928      0.66477468     -1.28947345
| 20> B      0.36913289      0.30429372      1.93110824
| 21> B      2.58024101     -0.37002493      0.73216300
| 22> B     -2.57992910     -0.70561338     -0.71010405
| 23> B      1.05308001     -1.87311511      2.26700425
| 24> *
| 25> 
| 26>                          ****END OF INPUT****
================================================================================

                       *****************************
                       * Geometry Optimization Run *
                       *****************************

Geometry optimization settings:
Update method            Update   .... BFGS
Choice of coordinates    CoordSys .... (2022) Redundant Internals
Initial Hessian          InHess   .... Almloef's Model
Max. no of cycles        MaxIter  .... 300

Convergence Tolerances:
Energy Change            TolE     ....  5.0000e-06 Eh
Max. Gradient            TolMAXG  ....  3.0000e-04 Eh/bohr
RMS Gradient             TolRMSG  ....  1.0000e-04 Eh/bohr
Max. Displacement        TolMAXD  ....  4.0000e-03 bohr
RMS Displacement         TolRMSD  ....  2.0000e-03 bohr
Strict Convergence                .... False

------------------------------------------------------------------------------
                        ORCA OPTIMIZATION COORDINATE SETUP
------------------------------------------------------------------------------

The optimization will be done in redundant internal coordinates (2022)
Making redundant internal coordinates   ...  (2022 redundants) done
Evaluating the initial hessian          ...  (Almloef) done
Evaluating the coordinates              ...  done
Calculating the B-matrix                .... done
Calculating the G-matrix                .... done
The number of degrees of freedom        ....  253

    -----------------------------------------------------------------
                    Redundant Internal Coordinates


    -----------------------------------------------------------------
         Definition                    Initial Value    Approx d2E/dq
    -----------------------------------------------------------------
      1. B(B   1,B   0)                  2.5203         0.013184   
      2. B(B   3,B   2)                  2.6106         0.010000   
      3. B(B   3,B   1)                  3.2731         0.010000   
      4. B(B   4,B   2)                  3.5323         0.010000   
      5. B(B   4,B   3)                  3.4629         0.010000   
      6. B(B   4,B   0)                  3.5244         0.010000   
      7. B(B   5,B   3)                  2.9980         0.010000   
      8. B(B   6,B   3)                  2.0046         0.087675   
      9. B(B   6,B   5)                  2.5598         0.011402   
     10. B(B   7,B   2)                  2.3374         0.025816   
     11. B(B   7,B   3)                  2.9526         0.010000   
     12. B(B   8,B   0)                  2.7769         0.010000   
     13. B(B   8,B   3)                  3.2071         0.010000   
     14. B(B   8,B   5)                  2.1925         0.043965   
     15. B(B   9,B   8)                  2.6041         0.010000   
     16. B(B   9,B   7)                  2.2754         0.032414   
     17. B(B  10,B   4)                  2.9577         0.010000   
     18. B(B  10,B   3)                  2.8557         0.010000   
     19. B(B  10,B   1)                  2.0000         0.089157   
     20. B(B  10,B   0)                  2.7880         0.010000   
     21. B(B  11,B   9)                  2.6358         0.010000   
     22. B(B  11,B   8)                  2.3069         0.028876   
     23. B(B  11,B   0)                  2.5779         0.010671   
     24. A(B  10,B   0,B  11)          128.7977         0.137071   
     25. A(B   4,B   0,B  10)           54.3774         0.110883   
     26. A(B   1,B   0,B   4)           95.0026         0.116339   
     27. A(B   8,B   0,B  10)           94.4779         0.129741   
     28. A(B   1,B   0,B   8)           72.7232         0.139898   
     29. A(B   1,B   0,B  11)          123.5215         0.149056   
     30. A(B   1,B   0,B  10)           43.9068         0.139429   
     31. A(B   4,B   0,B   8)           96.4760         0.111087   
     32. A(B   4,B   0,B  11)           89.2108         0.115061   
     33. A(B   8,B   0,B  11)           50.8720         0.137519   
     34. A(B   3,B   1,B  10)           59.9407         0.140927   
     35. A(B   0,B   1,B  10)           75.1782         0.186103   
     36. A(B   0,B   1,B   3)           86.2649         0.122691   
     37. A(B   3,B   2,B   7)           73.0360         0.157048   
     38. A(B   3,B   2,B   4)           66.6808         0.114196   
     39. A(B   4,B   2,B   7)          101.0108         0.120621   
     40. A(B   6,B   3,B  10)           97.2436         0.162191   
     41. A(B   5,B   3,B   6)           57.5254         0.154027   
     42. A(B   1,B   3,B   2)          153.1742         0.120255   
     43. A(B   8,B   3,B  10)           84.5244         0.115929   
     44. A(B   2,B   3,B   6)          129.1741         0.178742   
     45. A(B   2,B   3,B   7)           49.2177         0.129801   
     46. A(B   1,B   3,B   4)           83.9672         0.104387   
     47. A(B   7,B   3,B  10)          142.8333         0.122276   
     48. A(B   2,B   3,B  10)          117.7334         0.133221   
     49. A(B   5,B   3,B   8)           41.2098         0.112925   
     50. A(B   1,B   3,B   6)           74.0481         0.140730   
     51. A(B   6,B   3,B   8)           93.4781         0.143649   
     52. A(B   4,B   3,B   6)          151.3416         0.133180   
     53. A(B   1,B   3,B  10)           37.3118         0.114490   
     54. A(B   5,B   3,B  10)          107.4904         0.121042   
     55. A(B   4,B   3,B   5)          131.3669         0.108342   
     56. A(B   2,B   3,B   8)          123.6473         0.122018   
     57. A(B   2,B   3,B   4)           69.5075         0.115693   
     58. A(B   4,B   3,B   7)           91.0786         0.109086   
     59. A(B   4,B   3,B  10)           54.8073         0.110770   
     60. A(B   1,B   3,B   8)           58.1047         0.108033   
     61. A(B   4,B   3,B   8)           90.1621         0.105255   
     62. A(B   1,B   3,B   5)           70.4235         0.111647   
     63. A(B   2,B   3,B   5)          130.7996         0.128289   
     64. A(B   1,B   3,B   7)          138.6598         0.112519   
     65. A(B   6,B   3,B   7)          117.5697         0.156529   
     66. A(B   7,B   3,B   8)           80.9750         0.113846   
     67. A(B   5,B   3,B   7)           83.0510         0.118564   
     68. A(B   2,B   4,B   3)           43.8117         0.101404   
     69. A(B   2,B   4,B  10)           91.8758         0.107879   
     70. A(B   0,B   4,B   3)           69.8153         0.101486   
     71. A(B   0,B   4,B  10)           50.0170         0.108003   
     72. A(B   0,B   4,B   2)          109.8472         0.100786   
     73. A(B   3,B   4,B  10)           52.0966         0.109000   
     74. A(B   6,B   5,B   8)          109.3773         0.169069   
     75. A(B   3,B   5,B   6)           41.3483         0.129981   
     76. A(B   3,B   5,B   8)           74.5171         0.144621   
     77. A(B   3,B   6,B   5)           81.1263         0.182608   
     78. A(B   2,B   7,B   3)           57.7462         0.140205   
     79. A(B   2,B   7,B   9)          122.7068         0.178915   
     80. A(B   3,B   7,B   9)           86.0384         0.142912   
     81. A(B   3,B   8,B   5)           64.2731         0.135745   
     82. A(B   0,B   8,B   3)           83.5331         0.117754   
     83. A(B   0,B   8,B   5)          132.4822         0.155848   
     84. A(B   3,B   8,B  11)          110.7128         0.131502   
     85. A(B   5,B   8,B  11)          162.1985         0.187811   
     86. A(B   0,B   8,B  11)           60.0963         0.149781   
     87. A(B   3,B   8,B   9)           75.7916         0.122197   
     88. A(B   5,B   8,B   9)           97.7711         0.166177   
     89. A(B   0,B   8,B   9)          107.4914         0.136474   
     90. A(B   9,B   8,B  11)           64.5885         0.159173   
     91. A(B   7,B   9,B  11)          144.3402         0.159159   
     92. A(B   7,B   9,B   8)          110.1049         0.161032   
     93. A(B   8,B   9,B  11)           52.2366         0.142384   
     94. A(B   3,B  10,B   4)           73.0961         0.122134   
     95. A(B   0,B  10,B   4)           75.6056         0.124053   
     96. A(B   1,B  10,B   4)          129.8073         0.156497   
     97. A(B   0,B  10,B   1)           60.9150         0.166725   
     98. A(B   0,B  10,B   3)           90.2233         0.127155   
     99. A(B   1,B  10,B   3)           82.7474         0.162469   
    100. A(B   0,B  11,B   8)           69.0316         0.160718   
    101. A(B   8,B  11,B   9)           63.1749         0.157348   
    102. A(B   0,B  11,B   9)          112.7095         0.143559   
    103. D(B   3,B   1,B   0,B  11)     53.4311         0.010000   
    104. D(B   3,B   1,B   0,B   8)     56.2993         0.010000   
    105. D(B  10,B   1,B   0,B   4)     20.9284         0.010000   
    106. D(B  10,B   1,B   0,B   8)    116.1693         0.010000   
    107. D(B  10,B   1,B   0,B  11)    113.3011         0.010000   
    108. D(B   3,B   1,B   0,B  10)    -59.8700         0.010000   
    109. D(B   6,B   3,B   1,B  10)    126.2563         0.010000   
    110. D(B   6,B   3,B   1,B   0)   -158.7196         0.010000   
    111. D(B   7,B   3,B   1,B   0)    -44.9002         0.010000   
    112. D(B  10,B   3,B   1,B   0)     75.0241         0.010000   
    113. D(B  10,B   3,B   2,B   4)    -26.9238         0.010000   
    114. D(B   6,B   3,B   2,B   7)     94.9082         0.010000   
    115. D(B   5,B   3,B   1,B   0)    -98.1286         0.010000   
    116. D(B   6,B   3,B   2,B   4)   -154.6694         0.010000   
    117. D(B   1,B   3,B   2,B   7)   -119.4315         0.010000   
    118. D(B   5,B   3,B   2,B   7)     17.1243         0.010000   
    119. D(B   8,B   3,B   2,B   4)     75.8107         0.010000   
    120. D(B   8,B   3,B   2,B   7)    -34.6116         0.010000   
    121. D(B   5,B   3,B   1,B  10)   -173.1526         0.010000   
    122. D(B  10,B   3,B   2,B   7)   -137.3462         0.010000   
    123. D(B   8,B   3,B   1,B   0)    -54.1118         0.010000   
    124. D(B   5,B   3,B   2,B   4)    127.5467         0.010000   
    125. D(B   7,B   3,B   1,B  10)   -119.9243         0.010000   
    126. D(B   8,B   3,B   1,B  10)   -129.1359         0.010000   
    127. D(B   3,B   4,B   0,B   1)     39.1693         0.010000   
    128. D(B   3,B   4,B   0,B  11)    -84.4181         0.010000   
    129. D(B   3,B   4,B   0,B  10)     56.9119         0.010000   
    130. D(B  10,B   4,B   0,B   1)    -17.7425         0.010000   
    131. D(B  10,B   4,B   0,B  11)   -141.3300         0.010000   
    132. D(B   3,B   4,B   0,B   8)    -33.9666         0.010000   
    133. D(B   0,B   4,B   3,B  10)    -54.4501         0.010000   
    134. D(B   0,B   4,B   3,B   6)    -68.8370         0.010000   
    135. D(B  10,B   4,B   3,B   2)   -150.6311         0.010000   
    136. D(B  10,B   4,B   3,B   7)    164.1559         0.010000   
    137. D(B  10,B   4,B   3,B   1)     25.2940         0.010000   
    138. D(B  10,B   4,B   3,B   8)     83.1795         0.010000   
    139. D(B  10,B   4,B   3,B   5)     82.4733         0.010000   
    140. D(B  10,B   4,B   0,B   8)    -90.8785         0.010000   
    141. D(B  10,B   4,B   3,B   6)    -14.3869         0.010000   
    142. D(B   0,B   4,B   2,B   3)    -25.0238         0.010000   
    143. D(B   0,B   4,B   2,B   7)     40.9247         0.010000   
    144. D(B   0,B   4,B   3,B   5)     28.0232         0.010000   
    145. D(B   3,B   4,B   2,B   7)     65.9485         0.010000   
    146. D(B   0,B   4,B   3,B   8)     28.7294         0.010000   
    147. D(B  10,B   4,B   2,B   3)     22.7791         0.010000   
    148. D(B  10,B   4,B   2,B   7)     88.7277         0.010000   
    149. D(B   6,B   5,B   3,B   1)    -83.1413         0.010000   
    150. D(B   8,B   5,B   3,B   4)      1.0719         0.010000   
    151. D(B   6,B   5,B   3,B  10)    -87.4868         0.010000   
    152. D(B   8,B   5,B   3,B   2)    -97.2007         0.010000   
    153. D(B   8,B   5,B   3,B   7)    -84.2212         0.010000   
    154. D(B   6,B   5,B   3,B   8)   -146.7106         0.010000   
    155. D(B   8,B   5,B   3,B   1)     63.5693         0.010000   
    156. D(B   8,B   5,B   3,B  10)     59.2238         0.010000   
    157. D(B   8,B   5,B   3,B   6)    146.7106         0.010000   
    158. D(B   5,B   6,B   3,B   2)   -118.7181         0.010000   
    159. D(B   5,B   6,B   3,B   7)    -60.3909         0.010000   
    160. D(B   5,B   6,B   3,B   1)     76.6347         0.010000   
    161. D(B   3,B   6,B   5,B   8)    -34.1051         0.010000   
    162. D(B   5,B   6,B   3,B   8)     21.2398         0.010000   
    163. D(B   5,B   6,B   3,B  10)    106.1543         0.010000   
    164. D(B   5,B   6,B   3,B   4)    117.9654         0.010000   
    165. D(B   9,B   7,B   2,B   3)     59.8465         0.010000   
    166. D(B   2,B   7,B   3,B   6)   -119.3866         0.010000   
    167. D(B   9,B   7,B   3,B   4)    -71.7683         0.010000   
    168. D(B   9,B   7,B   3,B   2)   -133.1700         0.010000   
    169. D(B   9,B   7,B   3,B   1)     10.3147         0.010000   
    170. D(B   9,B   7,B   3,B   8)     18.2245         0.010000   
    171. D(B   9,B   7,B   3,B   5)     59.8061         0.010000   
    172. D(B   2,B   7,B   3,B  10)     83.0752         0.010000   
    173. D(B   9,B   7,B   3,B  10)    -50.0949         0.010000   
    174. D(B   9,B   7,B   3,B   6)    107.4433         0.010000   
    175. D(B   3,B   7,B   2,B   4)    -61.2508         0.010000   
    176. D(B   9,B   7,B   2,B   4)     -1.4043         0.010000   
    177. D(B   9,B   8,B   5,B   6)     92.6829         0.010000   
    178. D(B   3,B   8,B   5,B   6)     22.6049         0.010000   
    179. D(B   0,B   8,B   5,B   3)    -52.3541         0.010000   
    180. D(B   0,B   8,B   5,B   6)    -29.7492         0.010000   
    181. D(B  11,B   8,B   5,B   6)    100.1039         0.010000   
    182. D(B   0,B   8,B   3,B   1)     47.5993         0.010000   
    183. D(B   0,B   8,B   3,B   5)    144.0073         0.010000   
    184. D(B   0,B   8,B   3,B   6)    116.3685         0.010000   
    185. D(B  11,B   8,B   3,B   4)     19.4127         0.010000   
    186. D(B  11,B   8,B   3,B   2)    -45.8374         0.010000   
    187. D(B  11,B   8,B   3,B   7)    -71.6537         0.010000   
    188. D(B  11,B   8,B   3,B   1)    102.2003         0.010000   
    189. D(B  11,B   8,B   3,B   5)   -161.3917         0.010000   
    190. D(B  11,B   8,B   3,B  10)     74.0154         0.010000   
    191. D(B  11,B   8,B   3,B   6)    170.9695         0.010000   
    192. D(B   0,B   8,B   3,B  10)     19.4144         0.010000   
    193. D(B   3,B   8,B   0,B   1)    -58.5057         0.010000   
    194. D(B   5,B   8,B   0,B   4)     80.6190         0.010000   
    195. D(B   5,B   8,B   0,B  11)    164.2915         0.010000   
    196. D(B  11,B   8,B   5,B   3)     77.4989         0.010000   
    197. D(B   5,B   8,B   0,B  10)     26.0054         0.010000   
    198. D(B   5,B   8,B   0,B   1)    -12.6259         0.010000   
    199. D(B  11,B   8,B   0,B   4)    -83.6725         0.010000   
    200. D(B  11,B   8,B   0,B  10)   -138.2861         0.010000   
    201. D(B  11,B   8,B   0,B   1)   -176.9174         0.010000   
    202. D(B   7,B   9,B   8,B   5)    -38.3224         0.010000   
    203. D(B   7,B   9,B   8,B   0)    100.9370         0.010000   
    204. D(B   7,B   9,B   8,B  11)    144.1831         0.010000   
    205. D(B  11,B   9,B   8,B   3)   -121.6152         0.010000   
    206. D(B  11,B   9,B   8,B   5)    177.4945         0.010000   
    207. D(B  11,B   9,B   8,B   0)    -43.2462         0.010000   
    208. D(B  11,B   9,B   7,B   2)    -18.5153         0.010000   
    209. D(B  11,B   9,B   7,B   3)     28.6238         0.010000   
    210. D(B   8,B   9,B   7,B   2)    -71.0351         0.010000   
    211. D(B   8,B   9,B   7,B   3)    -23.8960         0.010000   
    212. D(B   1,B  10,B   3,B   4)    135.4949         0.010000   
    213. D(B   1,B  10,B   3,B   2)    166.7613         0.010000   
    214. D(B   1,B  10,B   3,B   7)    108.6332         0.010000   
    215. D(B   1,B  10,B   3,B   5)      6.7639         0.010000   
    216. D(B   1,B  10,B   3,B   6)    -51.4042         0.010000   
    217. D(B   4,B  10,B   1,B   3)     60.8162         0.010000   
    218. D(B   4,B  10,B   1,B   0)    -33.5014         0.010000   
    219. D(B   3,B  10,B   1,B   0)    -94.3176         0.010000   
    220. D(B   0,B  10,B   1,B   3)     94.3176         0.010000   
    221. D(B   3,B  10,B   0,B   4)    -72.4707         0.010000   
    222. D(B   3,B  10,B   0,B   8)     22.2939         0.010000   
    223. D(B   3,B  10,B   0,B  11)    -19.1830         0.010000   
    224. D(B   1,B  10,B   3,B   8)     41.4188         0.010000   
    225. D(B   3,B  10,B   0,B   1)     81.5684         0.010000   
    226. D(B   1,B  10,B   0,B   4)   -154.0391         0.010000   
    227. D(B   1,B  10,B   0,B   8)    -59.2745         0.010000   
    228. D(B   0,B  10,B   3,B   6)   -112.0290         0.010000   
    229. D(B   1,B  10,B   0,B  11)   -100.7513         0.010000   
    230. D(B   3,B  10,B   4,B   0)     94.7151         0.010000   
    231. D(B   0,B  10,B   4,B   2)   -114.5739         0.010000   
    232. D(B   0,B  10,B   4,B   3)    -94.7151         0.010000   
    233. D(B   1,B  10,B   4,B   2)    -84.7068         0.010000   
    234. D(B   1,B  10,B   4,B   0)     29.8670         0.010000   
    235. D(B   1,B  10,B   4,B   3)    -64.8481         0.010000   
    236. D(B   0,B  10,B   3,B   1)    -60.6248         0.010000   
    237. D(B   0,B  10,B   3,B   8)    -19.2060         0.010000   
    238. D(B   0,B  10,B   3,B   5)    -53.8609         0.010000   
    239. D(B   0,B  11,B   9,B   7)    -20.7672         0.010000   
    240. D(B   0,B  11,B   9,B   8)     49.7340         0.010000   
    241. D(B   9,B  11,B   8,B   3)     61.9555         0.010000   
    242. D(B   9,B  11,B   8,B   5)     -8.1450         0.010000   
    243. D(B   9,B  11,B   8,B   0)    131.0781         0.010000   
    244. D(B   0,B  11,B   8,B   9)   -131.0781         0.010000   
    245. D(B   0,B  11,B   8,B   3)    -69.1227         0.010000   
    246. D(B   0,B  11,B   8,B   5)   -139.2231         0.010000   
    247. D(B   9,B  11,B   0,B   8)    -46.8218         0.010000   
    248. D(B   9,B  11,B   0,B  10)     11.5188         0.010000   
    249. D(B   9,B  11,B   0,B   1)    -43.2906         0.010000   
    250. D(B   8,B  11,B   0,B   4)     99.0104         0.010000   
    251. D(B   8,B  11,B   0,B  10)     58.3406         0.010000   
    252. D(B   8,B  11,B   9,B   7)    -70.5012         0.010000   
    253. D(B   8,B  11,B   0,B   1)      3.5313         0.010000   
    -----------------------------------------------------------------

Number of atoms                         .... 12
Number of degrees of freedom            .... 253


         *************************************************************
         *                GEOMETRY OPTIMIZATION CYCLE   1            *
         *************************************************************
---------------------------------
CARTESIAN COORDINATES (ANGSTROEM)
---------------------------------
  B     -1.433288   -1.780801    1.592546
  B     -2.632914    0.351354    0.986956
  B      1.364872    0.083889   -3.102598
  B     -0.224313    0.840524   -1.174653
  B     -0.514195   -2.567175   -1.717741
  B      0.330166    2.409278    1.319235
  B     -1.033631    2.642616   -0.834443
  B      2.720779    0.664775   -1.289473
  B      0.369133    0.304294    1.931108
  B      2.580241   -0.370025    0.732163
  B     -2.579929   -0.705613   -0.710104
  B      1.053080   -1.873115    2.267004

----------------------------
CARTESIAN COORDINATES (A.U.)
----------------------------
  NO LB      ZA    FRAG     MASS         X           Y           Z
   0 B     5.0000    0    10.810   -2.708522   -3.365226    3.009475
   1 B     5.0000    0    10.810   -4.975487    0.663963    1.865077
   2 B     5.0000    0    10.810    2.579234    0.158528   -5.863060
   3 B     5.0000    0    10.810   -0.423890    1.588360   -2.219772
   4 B     5.0000    0    10.810   -0.971687   -4.851258   -3.246061
   5 B     5.0000    0    10.810    0.623923    4.552875    2.492993
   6 B     5.0000    0    10.810   -1.953280    4.993821   -1.576869
   7 B     5.0000    0    10.810    5.141528    1.256242   -2.436752
   8 B     5.0000    0    10.810    0.697560    0.575032    3.649266
   9 B     5.0000    0    10.810    4.875949   -0.699246    1.383588
  10 B     5.0000    0    10.810   -4.875359   -1.333416   -1.341902
  11 B     5.0000    0    10.810    1.990033   -3.539675    4.284017

--------------------------------
INTERNAL COORDINATES (ANGSTROEM)
--------------------------------
 B      0   0   0     0.000000000000     0.00000000     0.00000000
 B      1   0   0     2.520302734084     0.00000000     0.00000000
 B      2   1   0     5.725232329544    78.44816533     0.00000000
 B      3   2   1     2.610551228260    14.95115815   229.53962164
 B      4   3   2     3.462858449933    69.50752636     9.00914126
 B      4   3   5     2.997984822472   130.79958536   127.54670570
 B      4   3   5     2.004563917247   129.17411053   205.33062052
 B      3   2   1     2.337377225959    80.75630212   287.10540442
 B      6   4   3     2.192456409836    74.51710724   262.79925291
 B      8   3   2     2.275428569338   122.70684553    46.68739270
 B      2   1   3     2.000000007899    75.17816463    50.84326081
 B      9   6   4     2.306885130528   162.19853707    77.49894535

---------------------------
INTERNAL COORDINATES (A.U.)
---------------------------
 B      0   0   0     0.000000000000     0.00000000     0.00000000
 B      1   0   0     4.762681941992     0.00000000     0.00000000
 B      2   1   0    10.819121155910    78.44816533     0.00000000
 B      3   2   1     4.933226879983    14.95115815   229.53962164
 B      4   3   2     6.543854110909    69.50752636     9.00914126
 B      4   3   5     5.665370268124   130.79958536   127.54670570
 B      4   3   5     3.788076821537   129.17411053   205.33062052
 B      3   2   1     4.417002828727    80.75630212   287.10540442
 B      6   4   3     4.143142175150    74.51710724   262.79925291
 B      8   3   2     4.299936833349   122.70684553    46.68739270
 B      2   1   3     3.779452282770    75.17816463    50.84326081
 B      9   6   4     4.359381119114   162.19853707    77.49894535

---------------------
BASIS SET INFORMATION
---------------------
There are 1 groups of distinct atoms

 Group   1 Type B   : 7s4p1d contracted to 3s2p1d pattern {511/31/1}

Atom   0B    basis set group =>   1
Atom   1B    basis set group =>   1
Atom   2B    basis set group =>   1
Atom   3B    basis set group =>   1
Atom   4B    basis set group =>   1
Atom   5B    basis set group =>   1
Atom   6B    basis set group =>   1
Atom   7B    basis set group =>   1
Atom   8B    basis set group =>   1
Atom   9B    basis set group =>   1
Atom  10B    basis set group =>   1
Atom  11B    basis set group =>   1
---------------------------------
AUXILIARY/J BASIS SET INFORMATION
---------------------------------
There are 1 groups of distinct atoms

 Group   1 Type B   : 12s5p4d2f1g contracted to 6s4p3d1f1g pattern {711111/2111/211/2/1}

Atom   0B    basis set group =>   1
Atom   1B    basis set group =>   1
Atom   2B    basis set group =>   1
Atom   3B    basis set group =>   1
Atom   4B    basis set group =>   1
Atom   5B    basis set group =>   1
Atom   6B    basis set group =>   1
Atom   7B    basis set group =>   1
Atom   8B    basis set group =>   1
Atom   9B    basis set group =>   1
Atom  10B    basis set group =>   1
Atom  11B    basis set group =>   1


           ************************************************************
           *        Program running with 8 parallel MPI-processes     *
           *              working on a common directory               *
           ************************************************************
------------------------------------------------------------------------------
                             ORCA STARTUP CALCULATIONS
                           -- RI-GTO INTEGRALS CHOSEN --
------------------------------------------------------------------------------
------------------------------------------------------------------------------
                   ___                                                        
                  /   \      - P O W E R E D   B Y -                         
                 /     \                                                     
                 |  |  |   _    _      __       _____    __    __             
                 |  |  |  | |  | |    /  \     |  _  \  |  |  /  |          
                  \  \/   | |  | |   /    \    | | | |  |  | /  /          
                 / \  \   | |__| |  /  /\  \   | |_| |  |  |/  /          
                |  |  |   |  __  | /  /__\  \  |    /   |      \           
                |  |  |   | |  | | |   __   |  |    \   |  |\   \          
                \     /   | |  | | |  |  |  |  | |\  \  |  | \   \       
                 \___/    |_|  |_| |__|  |__|  |_| \__\ |__|  \__/        
                                                                              
                      - O R C A' S   B I G   F R I E N D -                    
                                      &                                       
                       - I N T E G R A L  F E E D E R -                       
                                                                              
 v1 FN, 2020, v2 2021, v3 2022-2024                                           
------------------------------------------------------------------------------


----------------------
SHARK INTEGRAL PACKAGE
----------------------

Number of atoms                             ...     12
Number of basis functions                   ...    168
Number of shells                            ...     72
Maximum angular momentum                    ...      2
Integral batch strategy                     ... SHARK/LIBINT Hybrid
RI-J (if used) integral strategy            ... SPLIT-RIJ (Revised 2003 algorithm where possible)
Printlevel                                  ...      1
Contraction scheme used                     ... SEGMENTED contraction
Prescreening option                         ... SCHWARTZ
   Thresh                                   ... 2.500e-11
   Tcut                                     ... 2.500e-12
   Tpresel                                  ... 2.500e-12 
Coulomb Range Separation                    ... NOT USED
Exchange Range Separation                   ... NOT USED
Multipole approximations                    ... NOT USED
Finite Nucleus Model                        ... NOT USED
CABS basis                                  ... NOT available
Auxiliary Coulomb fitting basis             ... AVAILABLE
   # of basis functions in Aux-J            ...    588
   # of shells in Aux-J                     ...    180
   Maximum angular momentum in Aux-J        ...      4
Auxiliary J/K fitting basis                 ... NOT available
Auxiliary Correlation fitting basis         ... NOT available
Auxiliary 'external' fitting basis          ... NOT available

Checking pre-screening integrals            ... done (  0.0 sec) Dimension = 72
   => SHARK Basis and OBASIS are compatible. Storing Pre-screening
Shell pair information
Shell pair cut-off parameter TPreSel        ...   2.5e-12
Total number of shell pairs                 ...      2628
Shell pairs after pre-screening             ...      2476
Total number of primitive shell pairs       ...     10596
Primitive shell pairs kept                  ...      6839
          la=0 lb=0:    592 shell pairs
          la=1 lb=0:    838 shell pairs
          la=1 lb=1:    300 shell pairs
          la=2 lb=0:    380 shell pairs
          la=2 lb=1:    288 shell pairs
          la=2 lb=2:     78 shell pairs

Checking whether 4 symmetric matrices of dimension 168 fit in memory
:Max Core in MB      =   2500.00
 MB in use           =      6.63
 MB left             =   2493.37
 MB needed           =      0.43
 Data fit in memory  = YES
Calculating RI/J V-Matrix + Cholesky decomp.... done (  0.1 sec)
Calculating Nuclear repulsion               ... done (  0.0 sec) ENN=    239.961719567583 Eh

Diagonalization of the overlap matrix:
Smallest eigenvalue                        ... 3.985e-03
Time for diagonalization                   ...    0.004 sec
Threshold for overlap eigenvalues          ... 1.000e-07
Number of eigenvalues below threshold      ... 0
Time for construction of square roots      ...    0.002 sec
Total time needed                          ...    0.009 sec

-------------------
DFT GRID GENERATION
-------------------

General Integration Accuracy     IntAcc      ... 4.388
Radial Grid Type                 RadialGrid  ... OptM3 with GC (2021)
Angular Grid (max. ang.)         AngularGrid ... 4 (Lebedev-302)
Angular grid pruning method      GridPruning ... 4 (adaptive)
Weight generation scheme         WeightScheme... mBecke (2022)
Basis function cutoff            BFCut       ... 1.0000e-11
Integration weight cutoff        WCut        ... 1.0000e-14
Partially contracted basis set               ... off
Rotationally invariant grid construction     ... off
Angular grids for H and He will be reduced by one unit

Total number of grid points                  ...    72578
Total number of batches                      ...     1139
Average number of points per batch           ...       63
Average number of grid points per atom       ...     6048
Grids setup in   0.7 sec
Initializing property integral containers    ... done (  0.0 sec)

SHARK setup successfully completed in   1.1 seconds

Maximum memory used throughout the entire STARTUP-calculation: 19.8 MB


           ************************************************************
           *        Program running with 8 parallel MPI-processes     *
           *              working on a common directory               *
           ************************************************************
-------------------------------------------------------------------------------
                                 ORCA GUESS
                   Start orbitals & Density for SCF / CASSCF
-------------------------------------------------------------------------------

------------
SCF SETTINGS
------------
Hamiltonian:
 Density Functional     Method          .... DFT(GTOs)
 Exchange Functional    Exchange        .... B88
   X-Alpha parameter    XAlpha          ....  0.666667
   Becke's b parameter  XBeta           ....  0.004200
 Correlation Functional Correlation     .... P86
 LDA part of GGA corr.  LDAOpt          .... PW91-LDA
 Gradients option       PostSCFGGA      .... off
   NL short-range parameter             ....  4.400000
 RI-approximation to the Coulomb term is turned on
   Number of AuxJ basis functions       .... 588


General Settings:
 Integral files         IntName         .... random2_nn2.00
 Hartree-Fock type      HFTyp           .... RHF
 Total Charge           Charge          ....    0
 Multiplicity           Mult            ....    1
 Number of Electrons    NEL             ....   60
 Basis Dimension        Dim             ....  168
 Nuclear Repulsion      ENuc            ....    239.9617195676 Eh

Convergence Acceleration:
 AO-DIIS                CNVDIIS         .... on
   Start iteration      DIISMaxIt       ....     0
   Startup error        DIISStart       ....  0.200000
   # of expansion vecs  DIISMaxEq       ....     5
   Bias factor          DIISBfac        ....   1.050
   Max. coefficient     DIISMaxC        ....  10.000
 MO-DIIS                CNVKDIIS        .... off
 Trust-Rad. Augm. Hess. CNVTRAH         .... auto
   Auto Start mean grad. ratio tolernc. ....  1.125000
   Auto Start start iteration           ....    50
   Auto Start num. interpolation iter.  ....    10
   Max. Number of Micro iterations      ....    24
   Max. Number of Macro iterations      .... Maxiter - #DIIS iter
   Number of Davidson start vectors     ....     2
   Converg. threshold    (grad. norm)   ....   1.000e-05
   Grad. Scal. Fac. for Micro threshold ....   0.100
   Minimum threshold for Micro iter.    ....   1.000e-02
   NR start threshold (gradient norm)   ....   1.000e-04
   Initial trust radius                 ....   0.400
   Minimum AH scaling param. (alpha)    ....   1.000
   Maximum AH scaling param. (alpha)    .... 1000.000
   Quad. conv. algorithm                .... NR
   White noise on init. David. guess    .... on
   Maximum white noise                  ....   0.010
   Pseudo random numbers                .... off
   Inactive MOs                         .... canonical
   Orbital update algorithm             .... Taylor
   Preconditioner                       .... Diag
   Full preconditioner red. dimension   ....   250
 SOSCF                 CNVSOSCF           .... on
   Start iteration     SOSCFMaxIt         ....   150
   Startup grad/error  SOSCFStart         ....  0.001000
   Hessian update      SOSCFHessUp        .... L-BFGS
   Autom. constraints  SOSCFAutoConstrain .... off
 Level Shifting         CNVShift        .... on
   Level shift para.    LevelShift      ....    0.2500
   Turn off err/grad.   ShiftErr        ....    0.0000
 Zerner damping         CNVZerner       .... off
 Static damping         CNVDamp         .... on
   Fraction old density DampFac         ....    0.8500
   Max. Damping (<1)    DampMax         ....    0.9800
   Min. Damping (>=0)   DampMin         ....    0.0000
   Turn off err/grad.   DampErr         ....    0.0300

SCF Procedure:
 Maximum # iterations   MaxIter         ....   125
 SCF integral mode      SCFMode         .... Direct
   Integral package                     .... SHARK and LIBINT hybrid scheme
 Reset frequency        DirectResetFreq ....    20
 Integral Threshold     Thresh          ....  2.500e-11 Eh
 Primitive CutOff       TCut            ....  2.500e-12 Eh

Convergence Tolerance:
 Convergence Check Mode ConvCheckMode   .... Total+1el-Energy
 Convergence forced     ConvForced      .... 0
 Energy Change          TolE            ....  1.000e-08 Eh
 1-El. energy change                    ....  1.000e-05 Eh
 Orbital Gradient       TolG            ....  1.000e-05
 Orbital Rotation angle TolX            ....  1.000e-05
 DIIS Error             TolErr          ....  5.000e-07

------------------------------
INITIAL GUESS: MODEL POTENTIAL
------------------------------
Loading Hartree-Fock densities                     ... done
Calculating cut-offs                               ... done
Initializing the effective Hamiltonian             ... done
Setting up the integral package (SHARK)            ... done
Starting the Coulomb interaction                   ... done (   0.0 sec)
Making the grid                                    ... done (   0.1 sec)
Mapping shells                                     ... done
Starting the XC term evaluation                    ... done (   0.0 sec)
  promolecular density results
     # of electrons  =     59.999592660
     EX              =    -44.483635198
     EC              =     -1.752116379
     EX+EC           =    -46.235751576
Transforming the Hamiltonian                       ... done (   0.0 sec)
Diagonalizing the Hamiltonian                      ... done (   0.0 sec)
Back transforming the eigenvectors                 ... done (   0.0 sec)
Now organizing SCF variables                       ... done
                      ------------------
                      INITIAL GUESS DONE (   0.3 sec)
                      ------------------
             **** ENERGY FILE WAS UPDATED (random2_nn2.00.en.tmp) ****
Finished Guess after   0.7 sec
Maximum memory used throughout the entire GUESS-calculation: 9.4 MB


           ************************************************************
           *        Program running with 8 parallel MPI-processes     *
           *              working on a common directory               *
           ************************************************************

-------------------------------------------------------------------------------------------
                                      ORCA LEAN-SCF
                              memory conserving SCF solver
-------------------------------------------------------------------------------------------

----------------------------------------D-I-I-S--------------------------------------------
Iteration    Energy (Eh)           Delta-E    RMSDP     MaxDP     DIISErr   Damp  Time(sec)
-------------------------------------------------------------------------------------------
               ***  Starting incremental Fock matrix formation  ***
    1    -296.0898323179213776     0.00e+00  9.46e-03  1.77e-01  8.85e-02  0.850   0.7
Warning: op=0 Small HOMO/LUMO gap (  -0.060) - skipping pre-diagonalization
         Will do a full diagonalization
    2    -296.2278730495276022    -1.38e-01  7.55e-03  9.68e-02  4.77e-02  0.850   0.3
                               ***Turning on AO-DIIS***
    3    -296.2016799063895860     2.62e-02  5.52e-03  5.03e-02  3.44e-02  0.850   0.5
    4    -296.1287146241368191     7.30e-02  4.37e-03  2.70e-02  6.42e-02  0.850   0.3
    5    -296.0707253258215133     5.80e-02  3.71e-03  2.48e-02  8.14e-02  0.850   0.3
    6    -296.0380907429330364     3.26e-02  3.30e-03  2.40e-02  8.59e-02  0.850   0.6
    7    -296.0248480693878719     1.32e-02  3.20e-03  2.64e-02  8.84e-02  0.850   0.4
    8    -296.0276570202139510    -2.81e-03  3.62e-03  3.65e-02  9.71e-02  0.850   0.4
    9    -296.0496349954047446    -2.20e-02  4.32e-03  4.51e-02  9.95e-02  0.850   0.5
   10    -296.0956979084345448    -4.61e-02  4.65e-03  3.92e-02  8.82e-02  0.850   0.3
   11    -296.1553552462906964    -5.97e-02  4.05e-03  2.66e-02  6.18e-02  0.850   0.3
   12    -296.1934211336164253    -3.81e-02  3.40e-03  2.93e-02  3.95e-02  0.850   0.3
   13    -296.2134610755927042    -2.00e-02  2.91e-03  3.37e-02  3.64e-02  0.850   0.3
   14    -296.2247798416726710    -1.13e-02  2.56e-03  3.25e-02  3.09e-02  0.850   0.4
   15    -296.2332038843627515    -8.42e-03  2.22e-03  2.66e-02  2.60e-02  0.850   0.3
   16    -296.2404819110896597    -7.28e-03  1.28e-02  1.36e-01  2.05e-02  0.000   0.3
   17    -296.2565954667475125    -1.61e-02  2.23e-03  2.40e-02  4.14e-02  0.000   0.3
   18    -296.2731987558415767    -1.66e-02  3.45e-04  3.29e-03  3.15e-02  0.850   0.3
   19    -296.2755025344504247    -2.30e-03  6.37e-04  5.30e-03  3.06e-02  0.850   0.2
   20    -296.2793395291068919    -3.84e-03  6.83e-04  4.60e-03  2.91e-02  0.850   0.3
               *** Restarting incremental Fock matrix formation ***
                             ****Resetting DIIS****
Warning: op=0 Small HOMO/LUMO gap (  -0.029) - skipping pre-diagonalization
         Will do a full diagonalization
   21    -296.2831069046235370    -3.77e-03  2.00e-02  1.34e-01  2.71e-02  0.000   0.3
   22    -296.0537105390643546     2.29e-01  7.27e-03  7.90e-02  1.21e-01  0.000   0.3
   23    -296.1926371946223071    -1.39e-01  5.33e-04  4.20e-03  7.19e-02  0.850   0.3
   24    -296.2019900291094245    -9.35e-03  7.72e-04  5.11e-03  6.81e-02  0.850   0.3
   25    -296.2148811615861632    -1.29e-02  8.80e-04  5.06e-03  6.29e-02  0.850   0.4
   26    -296.2283355992528868    -1.35e-02  2.40e-03  2.07e-02  5.73e-02  0.850   0.3
   27    -296.2535608736593531    -2.52e-02  1.92e-03  1.19e-02  4.33e-02  0.850   0.3
   28    -296.2722857019577987    -1.87e-02  1.57e-03  7.17e-03  3.16e-02  0.850   0.3
   29    -296.2830142017949129    -1.07e-02  1.39e-03  6.45e-03  2.24e-02  0.850   0.3
   30    -296.2893791424146457    -6.36e-03  8.49e-03  4.36e-02  1.49e-02  0.000   0.4
   31    -296.2891257295807463     2.53e-04  1.52e-03  1.04e-02  2.21e-02  0.000   0.3
   32    -296.2933039101664008    -4.18e-03  1.43e-03  8.53e-03  1.87e-02  0.000   0.3
   33    -296.2964405163061201    -3.14e-03  1.19e-03  5.63e-03  1.51e-02  0.000   0.3
   34    -296.2982256039922504    -1.79e-03  1.13e-03  6.29e-03  1.26e-02  0.000   0.3
   35    -296.2997075884239848    -1.48e-03  2.54e-03  2.00e-02  1.13e-02  0.000   0.3
   36    -296.3029212563446890    -3.21e-03  1.98e-03  2.11e-02  4.55e-03  0.000   0.3
   37    -296.3029488047704945    -2.75e-05  1.23e-03  1.03e-02  7.59e-03  0.000   0.6
   38    -296.3039096393933960    -9.61e-04  1.03e-03  3.80e-03  3.30e-03  0.000   0.4
   39    -296.3045757457887248    -6.66e-04  9.88e-04  3.97e-03  2.43e-03  0.000   0.7
   40    -296.3051216095228710    -5.46e-04  9.98e-04  4.18e-03  1.93e-03  0.000   0.4
               *** Restarting incremental Fock matrix formation ***
                             ****Resetting DIIS****
Warning: op=0 Small HOMO/LUMO gap (  -0.012) - skipping pre-diagonalization
         Will do a full diagonalization
   41    -296.3056550927065018    -5.33e-04  2.67e-03  1.16e-02  1.59e-03  0.000   0.3
   42    -296.3054014508226146     2.54e-04  1.30e-03  7.54e-03  6.95e-03  0.000   0.3
   43    -296.3070166272378856    -1.62e-03  1.29e-03  5.84e-03  4.45e-03  0.000   0.3
   44    -296.3081015849021469    -1.08e-03  1.36e-03  6.26e-03  2.53e-03  0.000   0.3
   45    -296.3089299167864965    -8.28e-04  1.45e-03  6.70e-03  2.30e-03  0.000   0.3
   46    -296.3095370547677021    -6.07e-04  1.57e-03  6.70e-03  3.57e-03  0.000   0.3
   47    -296.3102625575429556    -7.26e-04  1.45e-03  5.93e-03  3.48e-03  0.000   0.3
   48    -296.3110304774064616    -7.68e-04  1.40e-03  6.66e-03  3.68e-03  0.000   0.3
   49    -296.3117817708669008    -7.51e-04  1.41e-03  6.54e-03  4.08e-03  0.000   0.3
   50    -296.3124023174372041    -6.21e-04  1.67e-03  7.54e-03  4.69e-03  0.000   0.3

       ******************************************************************************
       ***                                                                        ***
       ***                               Auto-TRAH                                ***
       ***                               ---------                                ***
       *** the maximum gradient error decreased on average only by a factor   1.0 ***
       *** during the last  10 iterations                                         ***
       ***                                                                        ***
       ***               Leaving SCF to start the TRAH-SCF procedure              ***
       ***                                                                        ***
       ******************************************************************************

 --------------------------------------------------------------------------------------------
   Iter.        energy            ||Error||_2        Shift      TRadius  Mac/Mic        Rej.
 --------------------------------------------------------------------------------------------
    0       -296.312446026370     1.271422e-01                     0.400 (TRAH MAcro)   No
WARNING: 2 diagonal Hessian elements are negative!
WARNING : negative HOMO - LUMO gap : -0.009921
WARNING : negative HOMO - LUMO gap : -0.009921
    0     dE    -2.183250e-03     4.098809e-02    -4.3572e-03      0.046 (TRAH MIcro)
    0     dE    -2.640258e-03     4.547795e-02    -5.2431e-03      0.084 (TRAH MIcro)
    0     dE    -3.388646e-03     5.567173e-02    -6.5462e-03      0.188 (TRAH MIcro)
    0     dE    -3.963346e-03     3.504761e-02    -7.4778e-03      0.245 (TRAH MIcro)
    0     dE    -4.134777e-03     2.972939e-02    -7.7364e-03      0.263 (TRAH MIcro)
    0     dE    -4.209364e-03     2.335169e-02    -7.8631e-03      0.266 (TRAH MIcro)
    0     dE    -4.390662e-03     3.350220e-02    -8.1842e-03      0.270 (TRAH MIcro)
    0     dE    -4.641163e-03     5.100813e-02    -8.6135e-03      0.279 (TRAH MIcro)
    0     dE    -6.664075e-03     6.381330e-02    -2.0392e-02      0.400 (TRAH MIcro)
    0     dE    -7.151335e-03     4.369830e-02    -2.6964e-02      0.400 (TRAH MIcro)
    0     dE    -6.967111e-03     1.489338e-02    -3.5983e-02      0.362 (TRAH MIcro)
    0     dE    -7.022404e-03     7.990714e-03    -3.6182e-02      0.363 (TRAH MIcro)
    1       -296.317282498945     7.509932e-02                     0.400 (TRAH MAcro)   No
WARNING: 2 diagonal Hessian elements are negative!
WARNING : negative HOMO - LUMO gap : -0.007771
WARNING : negative HOMO - LUMO gap : -0.007771
    1     dE    -9.018934e-04     2.907545e-02    -1.8018e-03      0.033 (TRAH MIcro)
    1     dE    -1.336593e-03     4.069377e-02    -2.6550e-03      0.083 (TRAH MIcro)
    1     dE    -1.598277e-03     3.357676e-02    -3.1523e-03      0.118 (TRAH MIcro)
    1     dE    -1.840288e-03     1.961584e-02    -3.5867e-03      0.162 (TRAH MIcro)
    1     dE    -1.891991e-03     1.248986e-02    -3.6786e-03      0.169 (TRAH MIcro)
    1     dE    -1.918453e-03     1.357511e-02    -3.7256e-03      0.173 (TRAH MIcro)
    1     dE    -1.983926e-03     1.754778e-02    -3.8520e-03      0.173 (TRAH MIcro)
    1     dE    -2.112408e-03     2.966713e-02    -4.0971e-03      0.177 (TRAH MIcro)
    1     dE    -2.778765e-03     5.958129e-02    -5.1535e-03      0.280 (TRAH MIcro)
    1     dE    -4.158980e-03     4.719854e-02    -1.4454e-02      0.400 (TRAH MIcro)
    1     dE    -4.540151e-03     2.031219e-02    -1.9939e-02      0.400 (TRAH MIcro)
    1     dE    -4.394632e-03     1.132808e-02    -2.2157e-02      0.375 (TRAH MIcro)
    1     dE    -4.417561e-03     6.337970e-03    -2.2225e-02      0.376 (TRAH MIcro)
    2       -296.318845011582     1.025865e-01                     0.400 (TRAH MAcro)   No
WARNING: 2 diagonal Hessian elements are negative!
WARNING : negative HOMO - LUMO gap : -0.006141
WARNING : negative HOMO - LUMO gap : -0.006141
    2     dE    -1.510603e-03     3.109688e-02    -3.0167e-03      0.039 (TRAH MIcro)
    2     dE    -1.725594e-03     1.826273e-02    -3.4414e-03      0.053 (TRAH MIcro)
    2     dE    -1.823746e-03     2.024710e-02    -3.6283e-03      0.073 (TRAH MIcro)
    2     dE    -1.956980e-03     1.297351e-02    -3.8722e-03      0.104 (TRAH MIcro)
    2     dE    -1.976126e-03     9.150380e-03    -3.9069e-03      0.108 (TRAH MIcro)
    3       -296.320852884783     1.154673e-02                     0.480 (TRAH MAcro)   No
WARNING: 2 diagonal Hessian elements are negative!
WARNING : negative HOMO - LUMO gap : -0.005349
WARNING : negative HOMO - LUMO gap : -0.005349
    3     dE    -6.773926e-06     1.183225e-02    -1.3547e-05      0.007 (TRAH MIcro)
    3     dE    -3.744993e-05     1.089536e-02    -7.4867e-05      0.021 (TRAH MIcro)
    3     dE    -8.013907e-05     1.086555e-02    -1.5998e-04      0.043 (TRAH MIcro)
    3     dE    -1.098403e-04     6.969390e-03    -2.1873e-04      0.066 (TRAH MIcro)
    3     dE    -1.160404e-04     6.257558e-03    -2.3086e-04      0.073 (TRAH MIcro)
    3     dE    -1.242081e-04     5.281010e-03    -2.4681e-04      0.081 (TRAH MIcro)
    3     dE    -1.291963e-04     5.762218e-03    -2.5647e-04      0.087 (TRAH MIcro)
    3     dE    -1.364407e-04     7.247535e-03    -2.7038e-04      0.096 (TRAH MIcro)
    3     dE    -1.615998e-04     9.109449e-03    -3.1795e-04      0.128 (TRAH MIcro)
    3     dE    -1.811304e-04     9.381858e-03    -3.5448e-04      0.148 (TRAH MIcro)
    3     dE    -2.115175e-04     1.325732e-02    -4.1210e-04      0.163 (TRAH MIcro)
    3     dE    -3.085531e-04     1.605318e-02    -5.9016e-04      0.214 (TRAH MIcro)
    3     dE    -4.195496e-04     1.502009e-02    -7.8516e-04      0.262 (TRAH MIcro)
    3     dE    -4.307255e-04     1.377258e-02    -8.0457e-04      0.266 (TRAH MIcro)
    3     dE    -4.665335e-04     5.660447e-03    -8.6475e-04      0.281 (TRAH MIcro)
    3     dE    -4.718682e-04     2.724167e-03    -8.7421e-04      0.282 (TRAH MIcro)
    3     dE    -4.729120e-04     8.203269e-04    -8.7614e-04      0.282 (TRAH MIcro)
 ---------------------------------
          TRAH Step control 
 ---------------------------------
  predicted energy change =    -4.729119777929e-04
  actual energy  change   =     4.892338116065e-04
  energy change ratio     = -1.034513
  old trust radius        = 0.480000
  new trust radius        = 0.321600
  reject step?            = YES
    4       -296.320363650971     1.154673e-02                     0.322 (TRAH MAcro)  Yes
    5       -296.320363650971     8.086102e-02                     0.322 (TRAH MAcro)   No
WARNING: 2 diagonal Hessian elements are negative!
WARNING : negative HOMO - LUMO gap : -0.005238
WARNING : negative HOMO - LUMO gap : -0.005238
    5     dE    -8.721196e-04     3.088326e-02    -1.7427e-03      0.030 (TRAH MIcro)
    5     dE    -9.746092e-04     1.477544e-02    -1.9469e-03      0.035 (TRAH MIcro)
    5     dE    -1.004854e-03     7.127821e-03    -2.0071e-03      0.036 (TRAH MIcro)
    6       -296.321368758842     7.061244e-03                     0.386 (TRAH MAcro)   No
WARNING: 1 diagonal Hessian elements are negative!
WARNING : negative HOMO - LUMO gap : -0.006092
WARNING : negative HOMO - LUMO gap : -0.006092
    6     dE    -9.903271e-07     7.667232e-03    -1.9806e-06      0.003 (TRAH MIcro)
    6     dE    -7.072713e-06     7.392928e-03    -1.4142e-05      0.015 (TRAH MIcro)
    6     dE    -1.382995e-05     6.784326e-03    -2.7649e-05      0.019 (TRAH MIcro)
    6     dE    -2.924394e-05     6.519565e-03    -5.8371e-05      0.045 (TRAH MIcro)
    6     dE    -3.525261e-05     4.933688e-03    -7.0286e-05      0.056 (TRAH MIcro)
    6     dE    -3.850265e-05     4.131127e-03    -7.6691e-05      0.064 (TRAH MIcro)
    6     dE    -4.589775e-05     3.743235e-03    -9.1013e-05      0.093 (TRAH MIcro)
    6     dE    -4.824120e-05     2.696326e-03    -9.5504e-05      0.101 (TRAH MIcro)
    6     dE    -4.976646e-05     2.070114e-03    -9.8381e-05      0.108 (TRAH MIcro)
    6     dE    -5.075939e-05     9.224254e-04    -1.0021e-04      0.114 (TRAH MIcro)
    6     dE    -5.087871e-05     4.951399e-04    -1.0044e-04      0.115 (TRAH MIcro)
    7       -296.321406301303     9.681201e-03                     0.386 (TRAH MAcro)   No
WARNING: 1 diagonal Hessian elements are negative!
WARNING : negative HOMO - LUMO gap : -0.005199
WARNING : negative HOMO - LUMO gap : -0.005199
    7     dE    -5.773697e-06     7.613379e-03    -1.1547e-05      0.006 (TRAH MIcro)
    7     dE    -1.327007e-05     3.187230e-03    -2.6539e-05      0.005 (TRAH MIcro)
    7     dE    -1.468504e-05     1.340199e-03    -2.9369e-05      0.005 (TRAH MIcro)
    7     dE    -1.505242e-05     1.197536e-03    -3.0104e-05      0.006 (TRAH MIcro)
    7     dE    -1.545648e-05     7.330749e-04    -3.0911e-05      0.008 (TRAH MIcro)
    8       -296.321421873048     7.183316e-04                     0.463 (TRAH MAcro)   No
WARNING: 1 diagonal Hessian elements are negative!
WARNING : negative HOMO - LUMO gap : -0.006076
WARNING : negative HOMO - LUMO gap : -0.006076
    8     dE    -6.065113e-09     7.795759e-04    -1.2130e-08      0.000 (TRAH MIcro)
    8     dE    -1.482375e-07     6.652381e-04    -2.9647e-07      0.002 (TRAH MIcro)
    8     dE    -2.312677e-07     8.430574e-04    -4.6253e-07      0.004 (TRAH MIcro)
    8     dE    -3.698946e-07     9.762662e-04    -7.3976e-07      0.006 (TRAH MIcro)
    8     dE    -6.061998e-07     1.017672e-03    -1.2122e-06      0.012 (TRAH MIcro)
    8     dE    -7.377691e-07     8.498909e-04    -1.4752e-06      0.015 (TRAH MIcro)
    8     dE    -8.572204e-07     7.258988e-04    -1.7138e-06      0.019 (TRAH MIcro)
    8     dE    -9.770314e-07     4.724823e-04    -1.9531e-06      0.022 (TRAH MIcro)
    8     dE    -1.021860e-06     2.700670e-04    -2.0426e-06      0.024 (TRAH MIcro)
    8     dE    -1.040568e-06     2.170999e-04    -2.0799e-06      0.024 (TRAH MIcro)
    8     dE    -1.049356e-06     1.006231e-04    -2.0974e-06      0.025 (TRAH MIcro)
    8     dE    -1.050870e-06     3.572812e-05    -2.1005e-06      0.025 (TRAH MIcro)
    9       -296.321422957691     4.925165e-04                     0.556 (TRAH MAcro)   No
WARNING: 1 diagonal Hessian elements are negative!
WARNING : negative HOMO - LUMO gap : -0.006066
WARNING : negative HOMO - LUMO gap : -0.006066
    9     dE    -1.399694e-08     4.081671e-04    -2.7994e-08      0.000 (TRAH MIcro)
    9     dE    -3.473950e-08     1.821755e-04    -6.9479e-08      0.000 (TRAH MIcro)
    9     dE    -3.765473e-08     1.046463e-04    -7.5309e-08      0.000 (TRAH MIcro)
    9     dE    -3.913729e-08     7.572020e-05    -7.8275e-08      0.000 (TRAH MIcro)
    9     dE    -4.193134e-08     9.687716e-05    -8.3863e-08      0.001 (TRAH MIcro)
    9     dE    -4.466714e-08     1.012048e-04    -8.9334e-08      0.001 (TRAH MIcro)
    9     dE    -4.695248e-08     1.020640e-04    -9.3905e-08      0.002 (TRAH MIcro)
    9     dE    -4.974014e-08     1.080330e-04    -9.9480e-08      0.002 (TRAH MIcro)
    9     dE    -5.278661e-08     7.413308e-05    -1.0557e-07      0.003 (TRAH MIcro)
    9     dE    -5.412295e-08     4.605018e-05    -1.0824e-07      0.003 (TRAH MIcro)
   10       -296.321423013523     4.661645e-05                           (NR   MAcro)
WARNING: 1 diagonal Hessian elements are negative!
WARNING : negative HOMO - LUMO gap : -0.006121
   10     dE    -2.385743e-10     2.335305e-05                           (NR   MIcro)
   10     dE    -2.744041e-10     1.990186e-05                           (NR   MIcro)
   10     dE    -3.010600e-10     1.693346e-05                           (NR   MIcro)
   10     dE    -3.425733e-10     1.117969e-05                           (NR   MIcro)
   10     dE    -3.583389e-10     7.733188e-06                           (NR   MIcro)
   10     dE    -3.702829e-10     4.102850e-06                           (NR   MIcro)
   10     dE    -3.727042e-10     3.532984e-06                           (NR   MIcro)
   10     dE    -3.754531e-10     2.286952e-06                           (NR   MIcro)
   10     dE    -3.765718e-10     2.150209e-06                           (NR   MIcro)
   10     dE    -3.788966e-10     4.032032e-06                           (NR   MIcro)
   10     dE    -3.982928e-10     1.017728e-05                           (NR   MIcro)
   10     dE    -4.515108e-10     1.951732e-05                           (NR   MIcro)
   10     dE    -6.807031e-10     2.292738e-05                           (NR   MIcro)
   10     dE    -7.641798e-10     1.643481e-05                           (NR   MIcro)
   10     dE    -8.043341e-10     6.099647e-06                           (NR   MIcro)
   10     dE    -8.094728e-10     2.566819e-06                           (NR   MIcro)
   10     dE    -8.103263e-10     8.655057e-07                           (NR   MIcro)
   11       -296.321423014370     1.043043e-06                           (NR   MAcro)

               *****************************************************
               *                     SUCCESS                       *
               *           SCF CONVERGED AFTER 166 CYCLES          *
               *****************************************************

Warning: op=0 Small HOMO/LUMO gap (  -0.006) - skipping pre-diagonalization
         Will do a full diagonalization
             **** ENERGY FILE WAS UPDATED (random2_nn2.00.en.tmp) ****

----------------
TOTAL SCF ENERGY
----------------

Total Energy       :       -296.32142301437017 Eh           -8063.31585 eV

Components:
Nuclear Repulsion  :        239.96171956758334 Eh            6529.69035 eV
Electronic Energy  :       -536.28314258195360 Eh          -14593.00620 eV
One Electron Energy:       -867.93401258302401 Eh          -23617.68518 eV
Two Electron Energy:        331.65087000107047 Eh            9024.67898 eV

Virial components:
Potential Energy   :       -587.70863639677714 Eh          -15992.36503 eV
Kinetic Energy     :        291.38721338240691 Eh            7929.04918 eV
Virial Ratio       :          2.01693351459965

DFT components:
N(Alpha)           :       29.999987310734 electrons
N(Beta)            :       29.999987310734 electrons
N(Total)           :       59.999974621468 electrons
E(X)               :      -44.666613323185 Eh       
E(C)               :       -1.785090026728 Eh       
E(XC)              :      -46.451703349914 Eh       

---------------
SCF CONVERGENCE
---------------

  Last Energy change         ...   -8.4697e-10  Tolerance :   1.0000e-08
  Last MAX-Density change    ...    1.2168e-02  Tolerance :   1.0000e-07
  Last RMS-Density change    ...    2.1720e-03  Tolerance :   5.0000e-09
  Last DIIS Error            ...    7.1573e-03  Tolerance :   5.0000e-07


----------------
ORBITAL ENERGIES
----------------

  NO   OCC          E(Eh)            E(eV) 
   0   2.0000      -6.711212      -182.6214 
   1   2.0000      -6.663780      -181.3307 
   2   2.0000      -6.660947      -181.2536 
   3   2.0000      -6.660137      -181.2315 
   4   2.0000      -6.655708      -181.1110 
   5   2.0000      -6.654583      -181.0804 
   6   2.0000      -6.652305      -181.0184 
   7   2.0000      -6.647442      -180.8861 
   8   2.0000      -6.645184      -180.8246 
   9   2.0000      -6.643811      -180.7873 
  10   2.0000      -6.643794      -180.7868 
  11   2.0000      -6.636677      -180.5932 
  12   2.0000      -0.475392       -12.9361 
  13   2.0000      -0.443399       -12.0655 
  14   2.0000      -0.435083       -11.8392 
  15   2.0000      -0.419101       -11.4043 
  16   2.0000      -0.388146       -10.5620 
  17   2.0000      -0.376522       -10.2457 
  18   2.0000      -0.367130        -9.9901 
  19   2.0000      -0.337750        -9.1907 
  20   2.0000      -0.301410        -8.2018 
  21   2.0000      -0.295050        -8.0287 
  22   2.0000      -0.285353        -7.7648 
  23   2.0000      -0.263058        -7.1582 
  24   2.0000      -0.233701        -6.3593 
  25   2.0000      -0.224050        -6.0967 
  26   2.0000      -0.214219        -5.8292 
  27   2.0000      -0.210026        -5.7151 
  28   2.0000      -0.198251        -5.3947 
  29   2.0000      -0.191289        -5.2052 
  30   0.0000      -0.091289        -2.4841 
  31   0.0000      -0.082865        -2.2549 
  32   0.0000      -0.076243        -2.0747 
  33   0.0000      -0.066349        -1.8055 
  34   0.0000      -0.061216        -1.6658 
  35   0.0000      -0.058653        -1.5960 
  36   0.0000      -0.046947        -1.2775 
  37   0.0000      -0.044356        -1.2070 
  38   0.0000      -0.029635        -0.8064 
  39   0.0000      -0.025938        -0.7058 
  40   0.0000      -0.014758        -0.4016 
*Only the first 10 virtual orbitals were printed.

                    ********************************
                    * MULLIKEN POPULATION ANALYSIS *
                    ********************************

-----------------------
MULLIKEN ATOMIC CHARGES
-----------------------
   0 B :    0.009858
   1 B :   -0.044814
   2 B :    0.056472
   3 B :   -0.239308
   4 B :    0.193053
   5 B :    0.040957
   6 B :    0.074018
   7 B :    0.004395
   8 B :   -0.111499
   9 B :   -0.001006
  10 B :   -0.027143
  11 B :    0.045017
Sum of atomic charges:   -0.0000000

--------------------------------
MULLIKEN REDUCED ORBITAL CHARGES
--------------------------------
  0 B s       :     3.830534  s :     3.830534
      pz      :     0.266737  p :     1.150847
      px      :     0.410264
      py      :     0.473847
      dz2     :     0.001251  d :     0.008760
      dxz     :     0.001449
      dyz     :     0.001054
      dx2y2   :     0.002275
      dxy     :     0.002732

  1 B s       :     3.696441  s :     3.696441
      pz      :     0.503220  p :     1.336376
      px      :     0.346078
      py      :     0.487078
      dz2     :     0.003486  d :     0.011996
      dxz     :     0.001215
      dyz     :     0.003762
      dx2y2   :     0.001914
      dxy     :     0.001619

  2 B s       :     3.859301  s :     3.859301
      pz      :     0.476749  p :     1.076284
      px      :     0.420282
      py      :     0.179253
      dz2     :     0.001693  d :     0.007943
      dxz     :     0.003941
      dyz     :     0.001274
      dx2y2   :     0.000400
      dxy     :     0.000635

  3 B s       :     3.569976  s :     3.569976
      pz      :     0.508010  p :     1.658895
      px      :     0.576309
      py      :     0.574575
      dz2     :     0.001890  d :     0.010437
      dxz     :     0.001154
      dyz     :     0.001443
      dx2y2   :     0.003162
      dxy     :     0.002788

  4 B s       :     3.966847  s :     3.966847
      pz      :     0.217916  p :     0.838438
      px      :     0.304597
      py      :     0.315924
      dz2     :     0.000319  d :     0.001663
      dxz     :     0.000213
      dyz     :     0.000256
      dx2y2   :     0.000210
      dxy     :     0.000665

  5 B s       :     3.758875  s :     3.758875
      pz      :     0.438375  p :     1.191155
      px      :     0.211172
      py      :     0.541608
      dz2     :     0.001579  d :     0.009013
      dxz     :     0.001003
      dyz     :     0.002403
      dx2y2   :     0.003078
      dxy     :     0.000950

  6 B s       :     3.752053  s :     3.752053
      pz      :     0.344574  p :     1.162478
      px      :     0.345988
      py      :     0.471916
      dz2     :     0.001941  d :     0.011452
      dxz     :     0.002058
      dyz     :     0.001621
      dx2y2   :     0.002746
      dxy     :     0.003086

  7 B s       :     3.686494  s :     3.686494
      pz      :     0.614956  p :     1.300797
      px      :     0.361792
      py      :     0.324050
      dz2     :     0.002245  d :     0.008314
      dxz     :     0.001838
      dyz     :     0.002378
      dx2y2   :     0.001245
      dxy     :     0.000608

  8 B s       :     3.568176  s :     3.568176
      pz      :     0.359759  p :     1.531906
      px      :     0.429649
      py      :     0.742497
      dz2     :     0.001681  d :     0.011417
      dxz     :     0.001353
      dyz     :     0.001531
      dx2y2   :     0.004209
      dxy     :     0.002643

  9 B s       :     3.688377  s :     3.688377
      pz      :     0.593519  p :     1.305200
      px      :     0.381134
      py      :     0.330547
      dz2     :     0.001858  d :     0.007430
      dxz     :     0.001563
      dyz     :     0.002036
      dx2y2   :     0.001053
      dxy     :     0.000920

 10 B s       :     3.679631  s :     3.679631
      pz      :     0.454438  p :     1.337128
      px      :     0.384547
      py      :     0.498144
      dz2     :     0.003628  d :     0.010384
      dxz     :     0.001526
      dyz     :     0.003319
      dx2y2   :     0.000763
      dxy     :     0.001149

 11 B s       :     3.835875  s :     3.835875
      pz      :     0.233512  p :     1.107788
      px      :     0.434379
      py      :     0.439897
      dz2     :     0.001672  d :     0.011320
      dxz     :     0.001272
      dyz     :     0.001645
      dx2y2   :     0.003500
      dxy     :     0.003231



                     *******************************
                     * LOEWDIN POPULATION ANALYSIS *
                     *******************************

----------------------
LOEWDIN ATOMIC CHARGES
----------------------
   0 B :    0.043043
   1 B :   -0.053464
   2 B :    0.007006
   3 B :   -0.104131
   4 B :    0.181322
   5 B :    0.064558
   6 B :   -0.014637
   7 B :   -0.009376
   8 B :   -0.071773
   9 B :    0.032665
  10 B :   -0.033112
  11 B :   -0.042102

-------------------------------
LOEWDIN REDUCED ORBITAL CHARGES
-------------------------------
  0 B s       :     3.616142  s :     3.616142
      pz      :     0.293567  p :     1.326687
      px      :     0.472599
      py      :     0.560521
      dz2     :     0.002323  d :     0.014128
      dxz     :     0.002207
      dyz     :     0.001245
      dx2y2   :     0.003929
      dxy     :     0.004424

  1 B s       :     3.416747  s :     3.416747
      pz      :     0.645541  p :     1.610285
      px      :     0.369487
      py      :     0.595258
      dz2     :     0.007757  d :     0.026431
      dxz     :     0.001710
      dyz     :     0.010803
      dx2y2   :     0.003285
      dxy     :     0.002875

  2 B s       :     3.681551  s :     3.681551
      pz      :     0.593687  p :     1.296548
      px      :     0.499056
      py      :     0.203805
      dz2     :     0.002826  d :     0.014895
      dxz     :     0.007942
      dyz     :     0.002180
      dx2y2   :     0.000786
[...]
      dz2     :     0.010313  d :     0.035008
      dxz     :     0.008254
      dyz     :     0.005714
      dx2y2   :     0.005169
      dxy     :     0.005558

  8 B s       :     3.020160  s :     3.020160
      pz      :     0.547819  p :     1.906542
      px      :     0.597088
      py      :     0.761634
      dz2     :     0.012046  d :     0.061815
      dxz     :     0.009842
      dyz     :     0.016646
      dx2y2   :     0.011218
      dxy     :     0.012063

  9 B s       :     3.161153  s :     3.161153
      pz      :     0.693960  p :     1.678118
      px      :     0.614429
      py      :     0.369729
      dz2     :     0.009630  d :     0.034259
      dxz     :     0.006260
      dyz     :     0.008285
      dx2y2   :     0.004423
      dxy     :     0.005662

 10 B s       :     3.113208  s :     3.113208
      pz      :     0.755388  p :     1.848745
      px      :     0.553809
      py      :     0.539548
      dz2     :     0.013353  d :     0.051850
      dxz     :     0.010685
      dyz     :     0.012399
      dx2y2   :     0.007448
      dxy     :     0.007965

 11 B s       :     3.179348  s :     3.179348
      pz      :     0.554198  p :     1.910572
      px      :     0.747023
      py      :     0.609352
      dz2     :     0.015118  d :     0.048600
      dxz     :     0.013290
      dyz     :     0.008057
      dx2y2   :     0.005379
      dxy     :     0.006755



                     *******************************
                     * LOEWDIN POPULATION ANALYSIS *
                     *******************************

----------------------
LOEWDIN ATOMIC CHARGES
----------------------
   0 B :    0.058151
   1 B :   -0.085212
   2 B :   -0.038377
   3 B :   -0.044041
   4 B :   -0.008331
   5 B :   -0.027590
   6 B :    0.030687
   7 B :    0.020808
   8 B :    0.042770
   9 B :    0.066506
  10 B :    0.082238
  11 B :   -0.097608

-------------------------------
LOEWDIN REDUCED ORBITAL CHARGES
-------------------------------
  0 B s       :     2.703973  s :     2.703973
      pz      :     0.617251  p :     2.094122
      px      :     0.791013
      py      :     0.685858
      dz2     :     0.025673  d :     0.143753
      dxz     :     0.022925
      dyz     :     0.023358
      dx2y2   :     0.035720
      dxy     :     0.036078

  1 B s       :     2.630253  s :     2.630253
      pz      :     0.814952  p :     2.298420
      px      :     0.658456
      py      :     0.825012
      dz2     :     0.036724  d :     0.156539
      dxz     :     0.024785
      dyz     :     0.036513
      dx2y2   :     0.024278
      dxy     :     0.034239

  2 B s       :     2.775617  s :     2.775617
      pz      :     0.583466  p :     2.147924
      px      :     0.860129
      py      :     0.704329
      dz2     :     0.023065  d :     0.114836
      dxz     :     0.022981
      dyz     :     0.022148
      dx2y2   :     0.022098
      dxy     :     0.024545

  3 B s       :     2.646611  s :     2.646611
      pz      :     0.749914  p :     2.238848
      px      :     0.754565
      py      :     0.734369
      dz2     :     0.028756  d :     0.158582
      dxz     :     0.026512
      dyz     :     0.027841
      dx2y2   :     0.031600
      dxy     :     0.043874

  4 B s       :     2.790014  s :     2.790014
      pz      :     0.599837  p :     2.110903
      px      :     0.823948
      py      :     0.687118
      dz2     :     0.021535  d :     0.107413
      dxz     :     0.023302
      dyz     :     0.017963
      dx2y2   :     0.020715
      dxy     :     0.023898

  5 B s       :     2.760775  s :     2.760775
      pz      :     0.887726  p :     2.157990
      px      :     0.602923
      py      :     0.667341
      dz2     :     0.023871  d :     0.108825
      dxz     :     0.013017
      dyz     :     0.029772
      dx2y2   :     0.021665
      dxy     :     0.020500

  6 B s       :     2.740376  s :     2.740376
      pz      :     0.840954  p :     2.101701
      px      :     0.553515
      py      :     0.707231
      dz2     :     0.030481  d :     0.127237
      dxz     :     0.023866
      dyz     :     0.032404
      dx2y2   :     0.016987
      dxy     :     0.023498

  7 B s       :     2.769443  s :     2.769443
      pz      :     0.967868  p :     2.118094
      px      :     0.508782
      py      :     0.641443
      dz2     :     0.031107  d :     0.091655
      dxz     :     0.022001
      dyz     :     0.016586
      dx2y2   :     0.008912
      dxy     :     0.013048

  8 B s       :     2.689228  s :     2.689228
      pz      :     0.553404  p :     2.114408
      px      :     0.672880
      py      :     0.888124
      dz2     :     0.023867  d :     0.153595
      dxz     :     0.024813
      dyz     :     0.041310
      dx2y2   :     0.027642
      dxy     :     0.035962

  9 B s       :     2.790243  s :     2.790243
      pz      :     1.010581  p :     2.052351
      px      :     0.646420
      py      :     0.395350
      dz2     :     0.029052  d :     0.090900
      dxz     :     0.020032
      dyz     :     0.021037
      dx2y2   :     0.010883
      dxy     :     0.009897

 10 B s       :     2.736134  s :     2.736134
      pz      :     0.876878  p :     2.052251
      px      :     0.570825
      py      :     0.604549
      dz2     :     0.038708  d :     0.129376
      dxz     :     0.026335
      dyz     :     0.030366
      dx2y2   :     0.012889
      dxy     :     0.021078

 11 B s       :     2.762326  s :     2.762326
      pz      :     0.688150  p :     2.218162
      px      :     0.849684
      py      :     0.680328
      dz2     :     0.035916  d :     0.117120
      dxz     :     0.032555
      dyz     :     0.015839
      dx2y2   :     0.014190
      dxy     :     0.018620



                      *****************************
                      * MAYER POPULATION ANALYSIS *
                      *****************************

  NA   - Mulliken gross atomic population
  ZA   - Total nuclear charge
  QA   - Mulliken gross atomic charge
  VA   - Mayer's total valence
  BVA  - Mayer's bonded valence
  FA   - Mayer's free valence

  ATOM       NA         ZA         QA         VA         BVA        FA
  0 B      4.9917     5.0000     0.0083     3.6617     3.6617     0.0000
  1 B      4.6379     5.0000     0.3621     3.4327     3.4327     0.0000
  2 B      5.0725     5.0000    -0.0725     3.4158     3.4158    -0.0000
  3 B      4.5613     5.0000     0.4387     3.1526     3.1526     0.0000
  4 B      5.2272     5.0000    -0.2272     3.5282     3.5282     0.0000
  5 B      5.2846     5.0000    -0.2846     3.5048     3.5048    -0.0000
  6 B      5.1456     5.0000    -0.1456     3.7062     3.7062    -0.0000
  7 B      5.0648     5.0000    -0.0648     3.6425     3.6425     0.0000
  8 B      4.9885     5.0000     0.0115     3.6306     3.6306    -0.0000
  9 B      4.8735     5.0000     0.1265     3.3859     3.3859    -0.0000
 10 B      5.0138     5.0000    -0.0138     3.7689     3.7689     0.0000
 11 B      5.1385     5.0000    -0.1385     3.4370     3.4370    -0.0000

  Mayer bond orders larger than 0.100000
B(  0-B ,  1-B ) :   0.8828 B(  0-B ,  5-B ) :   0.1540 B(  0-B ,  7-B ) :   0.1090 
B(  0-B ,  8-B ) :   0.5857 B(  0-B ,  9-B ) :   0.5791 B(  0-B , 10-B ) :   0.3252 
B(  0-B , 11-B ) :   0.9066 B(  1-B ,  3-B ) :   0.1378 B(  1-B ,  5-B ) :   0.4516 
B(  1-B ,  6-B ) :   0.3980 B(  1-B ,  8-B ) :   0.4753 B(  1-B , 10-B ) :   0.8145 
B(  1-B , 11-B ) :   0.1038 B(  2-B ,  3-B ) :   0.4827 B(  2-B ,  4-B ) :   1.3390 
B(  2-B ,  7-B ) :   1.3200 B(  2-B , 10-B ) :   0.1389 B(  3-B ,  4-B ) :   0.4362 
B(  3-B ,  6-B ) :   0.9535 B(  3-B ,  7-B ) :   0.6387 B(  3-B , 10-B ) :   0.3535 
B(  4-B ,  6-B ) :   0.1495 B(  4-B ,  7-B ) :   0.1904 B(  4-B , 10-B ) :   1.2885 
B(  5-B ,  6-B ) :   1.3450 B(  5-B ,  8-B ) :   1.1630 B(  5-B , 10-B ) :   0.2008 
B(  6-B ,  7-B ) :   0.1252 B(  6-B ,  8-B ) :   0.2207 B(  6-B , 10-B ) :   0.3996 
B(  7-B ,  9-B ) :   0.9800 B(  7-B , 10-B ) :   0.1862 B(  8-B ,  9-B ) :   0.2495 
B(  8-B , 11-B ) :   0.8495 B(  9-B , 11-B ) :   1.3973 

-------
TIMINGS
-------

Total SCF time: 0 days 0 hours 0 min 3 sec 

Total time                  ....       3.898 sec
Sum of individual times     ....       3.564 sec  ( 91.4%)

SCF preparation             ....       0.652 sec  ( 16.7%)
Fock matrix formation       ....       2.452 sec  ( 62.9%)
  Startup                   ....       0.008 sec  (  0.3% of F)
  Split-RI-J                ....       0.834 sec  ( 34.0% of F)
  XC integration            ....       1.748 sec  ( 71.3% of F)
    XC Preparation          ....       0.000 sec  (  0.0% of XC)
    Basis function eval.    ....       0.416 sec  ( 23.8% of XC)
    Density eval.           ....       0.284 sec  ( 16.3% of XC)
    XC-Functional eval.     ....       0.048 sec  (  2.8% of XC)
    XC-Potential eval.      ....       0.353 sec  ( 20.2% of XC)
Diagonalization             ....       0.000 sec  (  0.0%)
Density matrix formation    ....       0.032 sec  (  0.8%)
Total Energy calculation    ....       0.021 sec  (  0.6%)
Population analysis         ....       0.201 sec  (  5.2%)
Orbital Transformation      ....       0.019 sec  (  0.5%)
Orbital Orthonormalization  ....       0.000 sec  (  0.0%)
DIIS solution               ....       0.018 sec  (  0.5%)
SOSCF solution              ....       0.167 sec  (  4.3%)
Finished LeanSCF after   4.1 sec

Maximum memory used throughout the entire LEANSCF-calculation: 13.0 MB


-------------------------------------------------------------------------------
                          DFT DISPERSION CORRECTION                            
                                                                               
                              DFTD3 V3.1  Rev 1                                
                          USING Becke-Johnson damping                          
-------------------------------------------------------------------------------
The BP86 functional is recognized
Active option DFTDOPT                   ...         4   

molecular C6(AA) [au] = 4347.550959 


            DFT-D V3
 parameters
 s6 scaling factor         :     1.0000 
 a1 scaling factor         :     0.3946 
 s8 scaling factor         :     3.2822 
 a2 scaling factor         :     4.8516 
 ad hoc parameters k1-k3   :    16.0000     1.3333    -4.0000 

 Edisp/kcal,au: -21.999767918305  -0.035058858043 
 E6   /kcal   :  -6.290566959 
 E8   /kcal   : -15.709200959 
 % E8         :  71.406212180 

-------------------------   ----------------
Dispersion correction           -0.035058858
-------------------------   ----------------


-------------------------   --------------------
FINAL SINGLE POINT ENERGY      -297.636463436129
-------------------------   --------------------

                                *** OPTIMIZATION RUN DONE ***



           ************************************************************
           *        Program running with 8 parallel MPI-processes     *
           *              working on a common directory               *
           ************************************************************

------------------------------------------------------------------------------
                              ORCA PROPERTY CALCULATIONS
------------------------------------------------------------------------------

GBWName                                 ... random2_nn2.00.gbw
Number of atoms                         ...     12
Number of basis functions               ...    168
Max core memory                         ...   2500 MB

Electric properties:
Dipole moment                           ... YES
Quadrupole moment                       ...  NO
Static polarizability (Dipole/Dipole)   ...  NO
Static polarizability (Dipole/Quad.)    ...  NO
Static polarizability (Quad./Quad.)     ...  NO
Static polarizability (Velocity)        ...  NO
Static hyperpolarizability              ...  NO

Atomic electric properties:
Dipole moment                           ...  NO
Quadrupole moment                       ...  NO
Static polarizability                   ...  NO

Choice of electric origin               ... Center of mass
Position of electric origin             ...    -0.000000     0.000000     0.000000

General magnetic properties:
Magnetizability                         ...  NO

EPR properties:
g-Tensor (aka g-matrix)                 ...  NO
Zero-Field splitting spin-orbit         ...  NO
Zero-field splitting spin-spin          ...  NO
Hyperfine couplings                     ...  NO (   0 nuclei)
Quadrupole couplings                    ...  NO (   0 nuclei)
Contact density                         ...  NO (   0 nuclei)

NMR properties:
Chemical shifts                         ...  NO (   0 nuclei)
Spin-rotation constants                 ...  NO (   0 nuclei)
Spin-spin couplings                     ...  NO (   0 nuclei,    0 pairs)

Choice of magnetic origin               ... GIAO
Position of magnetic origin             ...     0.000000     0.000000     0.000000

Properties with geometric perturbations:
SCF Hessian                             ...  NO
IR spectrum                             ...  NO
VCD spectrum                            ...  NO
X-ray spectroscopy properties:
SCF XES/XAS/RIXS spectra                ...  NO

SCF SOC stabilization energy            ...  NO
Diagonal Born-Oppenheimer correction    ...  NO

-------------
DIPOLE MOMENT
-------------

Method             : SCF
Type of density    : Electron Density
Multiplicity       :   1
Irrep              :   0
Energy             :  -297.6014045780863739 Eh
Basis              : AO
                                X                 Y                 Z
Electronic contribution:     -0.270569497       0.221474909      -0.232803547
Nuclear contribution   :     -0.000000000       0.000000000       0.000000000
                        -----------------------------------------
Total Dipole Moment    :     -0.270569497       0.221474909      -0.232803547
                        -----------------------------------------
Magnitude (a.u.)       :      0.420067232
Magnitude (Debye)      :      1.067726050



--------------------
Rotational spectrum 
--------------------
 
Rotational constants in cm-1:             0.077324             0.047238             0.036377 
Rotational constants in MHz :          2318.119369          1416.145374          1090.566512 

Dipole components along the rotational axes: 
x,y,z [a.u.] :    -0.207946     0.361357    -0.051345 
x,y,z [Debye]:    -0.528556     0.918496    -0.130508 

 

Dipole moment calculation done in   0.1 sec 

Maximum memory used throughout the entire PROP-calculation: 10.4 MB

--------------------------------
SUGGESTED CITATIONS FOR THIS RUN
--------------------------------

Below you find a list of papers that are relevant to this ORCA run
We neither can nor want to force you to cite these papers, but we appreciate if you do
You receive ORCA, which is the product of decades of hard work by many enthusiastic individuals, for free
The only thing we kindly ask in return is that you cite our papers,
We deeply appreciate it, if you show your appreciation for ORCA by not just citing the generic ORCA reference.

Please note that relegating all ORCA citations to the supporting information does *not* help us.
SI sections are not indexed - citations you put there will not count into any citation statistics
But we need these citations in order to attract the funding resources that allow us to do what we are doing

Therefore, if you are a happy ORCA user, please consider citing a few of the papers listed below in the main body of your paper

In addition to the list printed below, the program has created the file random2_nn2.00.bibtex that contains the list in bibtex format
You can import this file easily into all common literature databanks and citation aid programs

It goes without saying that in many instances, there are alternative algorithms to achieve similar
results as the ones you have gotten from ORCA. It is, of course, also the case that in some instances
ORCA just re-implements algorithms worked out by others. We are fully aware of that and we are also
fully appreciative of our colleagues work. Hence this citation list should not be read as indicating
that the listed papers, which are focused on our own work, are the only ones worth citing. It simply
meant to make it easier for users to cite ORCA specific papers. It is not a substitute for doing your
own literature research and citing the relevant literature in a scientifically appropriate manner.

List of essential papers. We consider these as the minimum necessary citations

  1. Neese, F.
     Software update: the ORCA program system, version 6.0
     WIRES Comput. Molec. Sci. 2025 15(1), e70019
     doi.org/10.1002/wcms.70019

List of papers to cite with high priority. The work reported in these papers was absolutely
necessary for this run to complete.
Our perspective: the developers of density functionals and basis sets usually get cited in chemistry papers
Good! But without the algorithms to do something with them, the functionals or basis sets would not do anything.
Hence, in our opinion, the algorithm design and method developments papers are equally worthy of getting cited

  1. Neese, F.
     An improvement of the resolution of the identity approximation for the formation of the Coulomb matrix
     J. Comp. Chem. 2003 24(14), 1740-1747
     doi.org/10.1002/jcc.10318
  2. Grimme, S.; Antony, J.; Ehrlich, S.; Krieg, H.
     A consistent and accurate ab initio parametrization of density functional dispersion correction (DFT-D) for the 94 elements H-Pu
     J. Chem. Phys. 2010 132 , 154104
     doi.org/10.1063/1.3382344
  3. Grimme, S.; Ehrlich, S.; Goerigk, L.
     Effect of the damping function in dispersion corrected density functional theory
     J. Comput. Chem. 2011 32(7), 1456-1465
     doi.org/10.1002/jcc.21759
  4. Helmich-Paris, B.
     A trust-region augmented Hessian implementation for restricted and unrestricted Hartree–Fock and Kohn–Sham methods
     J. Chem. Phys. 2021 154 , 164104
     doi.org/10.1063/5.0040798
  5. Neese, F.
     The SHARK Integral Generation and Digestion System
     J. Comp. Chem. 2022 44(3), 381
     doi.org/10.1002/jcc.26942

List of suggested additional citations. These are papers that are important in the 'surrounding' of 
of this run, or papers that preceded the highly important papers. If you like your results we are grateful for a citation.

  1. Neese, F.
     The ORCA program system
     WIRES Comput. Molec. Sci. 2012 2(1), 73-78
     doi.org/10.1002/wcms.81
  2. Neese, F.
     Software update: the ORCA program system, version 4.0
     WIRES Comput. Molec. Sci. 2018 8(1), 1-6
     doi.org/10.1002/wcms.1327
  3. Neese, F.; Wennmohs, F.; Becker, U.; Riplinger, C.
     The ORCA quantum chemistry program package
     J. Chem. Phys. 2020 152(22), 224108
     doi.org/10.1063/5.0004608
  4. Neese, F.
     Software update: The ORCA program system—Version 5.0
     WIRES Comput. Molec. Sci. 2022 12(1), e1606
     doi.org/10.1002/wcms.1606

List of optional additional citations

  1. Neese, F.
     Approximate second-order SCF convergence for spin unrestricted wavefunctions
     Chem. Phys. Lett. 2000 325(1-3), 93-98
     doi.org/10.1016/s0009-2614(00)00662-x

Timings for individual modules:

Sum of individual times          ...      974.974 sec (=  16.250 min)
Startup calculation              ...      109.563 sec (=   1.826 min)  11.2 %
SCF iterations                   ...      700.090 sec (=  11.668 min)  71.8 %
Property calculations            ...        0.833 sec (=   0.014 min)   0.1 %
SCF Gradient evaluation          ...      162.994 sec (=   2.717 min)  16.7 %
Geometry relaxation              ...        1.494 sec (=   0.025 min)   0.2 %
                             ****ORCA TERMINATED NORMALLY****
TOTAL RUN TIME: 0 days 0 hours 17 minutes 7 seconds 895 msec
