
                                 *****************
                                 * O   R   C   A *
                                 *****************

                                            #,                                       
                                            ###                                      
                                            ####                                     
                                            #####                                    
                                            ######                                   
                                           ########,                                 
                                     ,,################,,,,,                         
                               ,,#################################,,                 
                          ,,##########################################,,             
                       ,#########################################, ''#####,          
                    ,#############################################,,   '####,        
                  ,##################################################,,,,####,       
                ,###########''''           ''''###############################       
              ,#####''   ,,,,##########,,,,          '''####'''          '####       
            ,##' ,,,,###########################,,,                        '##       
           ' ,,###''''                  '''############,,,                           
         ,,##''                                '''############,,,,        ,,,,,,###''
      ,#''                                            '''#######################'''  
     '                                                          ''''####''''         
             ,#######,   #######,   ,#######,      ##                                
            ,#'     '#,  ##    ##  ,#'     '#,    #''#        ,####,    ,#,          
            ##       ##  ##   ,#'  ##            #'  '#       #'       ,# #          
            ##       ##  #######   ##           ,######,      #####,      #          
            '#,     ,#'  ##    ##  '#,     ,#' ,#      #,     #,   #      #          
             '#######'   ##     ##  '#######'  #'      '#     '####' #    #          



                #########################################################
                #                        -***-                          #
                #          Department of theory and spectroscopy        #
                #                                                       #
                #                      Frank Neese                      #
                #                                                       #
                #     Directorship, Architecture, Infrastructure        #
                #                    SHARK, DRIVERS                     #
                #        Core code/Algorithms in most modules           #
                #                                                       #
                #        Max Planck Institute fuer Kohlenforschung      #
                #                Kaiser Wilhelm Platz 1                 #
                #                 D-45470 Muelheim/Ruhr                 #
                #                      Germany                          #
                #                                                       #
                #                  All rights reserved                  #
                #                        -***-                          #
                #########################################################


                         Program Version 6.1.1  -  RELEASE   -
                                (GIT: $487d211c$)
                          ($2025-11-21 10:33:24 +0100$)
                                                                         
                                  - NO-DMRG VERSION -                    
                                                                         


 With contributions from (in alphabetic order):
[Max-Planck-Institut fuer Kohlenforschung]                               
  Daniel Aravena         : Magnetic Suceptibility                        
  Michael Atanasov       : Ab Initio Ligand Field Theory (pilot matlab implementation)
  Alexander A. Auer      : GIAO ZORA, VPT2 properties, NMR spectrum      
  Ute Becker             : All parallelization in ORCA, NUMFREQ, NUMCALC 
  Giovanni Bistoni       : ED, misc. LED, open-shell LED, HFLD           
  Dmytro Bykov           : pre 5.0 version of the SCF Hessian            
  Marcos Casanova-Páez   : Triplet and SCS-CIS(D). UHF-(DLPNO)-IP/EA/STEOM-CCSD. UHF-CVS-IP/STEOM-CCSD   
  Vijay G. Chilkuri      : MRCI spin determinant printing, contributions to CSF-ICE 
  Pauline Colinet        : FMM embedding                                 
  Dipayan Datta          : RHF DLPNO-CCSD density                        
  Achintya Kumar Dutta   : EOM-CC, STEOM-CC                              
  Nicolas Foglia         : Exact transition moments, OPA infrastructure, MCD improvements    
  Dmitry Ganyushin       : Spin-Orbit,Spin-Spin,Magnetic field MRCI      
  Miquel Garcia-Rates    : C-PCM and meta-GGA Hessian, CCSD/C-PCM, Gaussian charge scheme 
  Tiago L. C. Gouveia    : GS-ROHF, GS-ROCIS                             
  Yang Guo               : DLPNO-NEVPT2, F12-NEVPT2, CIM, IAO-localization        
  Andreas Hansen         : Spin unrestricted coupled pair/coupled cluster methods 
  Ingolf Harden          : AUTO-CI MPn and infrastructure                
  Benjamin Helmich-Paris : MC-RPA, TRAH-(SCF,CASSCF), AVAS, COSX integrals, SCF dyn. polar., MC-PDFT, srDFT 
  Lee Huntington         : MR-EOM, pCC                                   
  Robert Izsak           : Overlap fitted RIJCOSX, COSX-SCS-MP3, EOM     
  Riya Kayal             : Wick's Theorem for AUTO-CI, AUTO-CI UHF-CCSDT 
  Emily Kempfer          : AUTO-CI RHF CISDT and CCSDT, approximate NEVPT4
  Christian Kollmar      : KDIIS, OOCD, Brueckner-CCSD(T), CCSD density, CASPT2, CASPT2-K, improved NEVPT2 
  Axel Koslowski         : Symmetry handling                             
  Simone Kossmann        : meta-GGA functionals, TD-DFT gradient, OOMP2, (MP2 Hessian; deprecated post 5.0) 
  Lucas Lang             : DCDCAS, Hyperfine gauge corrections, ICE-SOC+SSC
  Marvin Lechner         : AUTO-CI (C++ implementation), FIC-MRCC        
  Spencer Leger          : CASSCF response                               
  Dagmar Lenk            : GEPOL surface, SMD, ORCA-2-JSON               
  Dimitrios Liakos       : Extrapolation schemes; Compound Job, Property file
  Dimitrios Manganas     : Further ROCIS development; embedding schemes. LFT, Crystal Embedding 
  Dimitrios Pantazis     : SARC Basis sets                               
  Anastasios Papadopoulos: AUTO-CI, single reference methods and gradients 
  Taras Petrenko         : pre 6.0 DFT Hessian and TD-DFT gradient,  ECA, NRVS 
  Petra Pikulova         : Analytic Raman intensities                    
  Peter Pinski           : DLPNO-MP2, DLPNO-MP2 Gradient                 
  Shashank Vittal Rao    : ES-AILFT, MagRelax                            
  Christoph Reimann      : Effective Core Potentials                     
  Marius Retegan         : Local ZFS, SOC                                
  Christoph Riplinger    : Optimizer, TS searches, QM/MM, DLPNO-CCSD(T), (RO)-DLPNO pert. Triples 
  Michael Roemelt        : Original ROCIS implementation, recursive CI coupling coefficients
  Masaaki Saitow         : Open-shell DLPNO-CCSD energy and density      
  Barbara Sandhoefer     : DKH picture change effects                    
  Yorick L. A. Schmerwitz: GMF and freeze-and-release deltaSCF, NEB S-IDPP initial path                    
  Kantharuban Sivalingam : CASSCF convergence/infrastructure, NEVPT2, NEVPT3, NEVPT4(SD), FIC-MRCI and CEPA variants
  Bernardo de Souza      : ESD, SOC TD-DFT                               
  Georgi L. Stoychev     : AutoAux, RI-MP2 NMR, DLPNO-MP2 response, X2C  
  Van Anh Tran           : RI-MP2 g-tensors                              
  Willem Van den Heuvel  : Paramagnetic NMR                              
  Zikuan Wang            : NOTCH, Electric field optimization            
  Frank Wennmohs         : Technical directorship and infrastructure     
  Hang Xu                : AUTO-CI-Response properties                   
                                                                         
[FACCTs GmbH]                                                            
  Markus Bursch, Nicolas Foglia, Miquel Garcia-Rates, Ingolf Harden, Hagen Neugebauer, Anastasios Papadopoulos, 
  Christoph Riplinger, Bernardo de Souza, Georgi L. Stoychev                                                    
                                                                 
  APM, various basis sets, CI-OPT, improved COSX, DLPNO-Multilevel,           
  DOCKER, DRACO, updates on ESD, Fragmentator, GOAT, IRC, LR-CPCM, L-BFGS, MBIS, meta-GGA TD-DFT gradient, ML-optimized integration grids, 
  MM, NACMEs, nearIR, NEB, NEB-TS, NL-DFT gradient (VV10), 2- and 3-layer-ONIOM, interface openCOSMO-RS, QMMM,   
  Crystal-QMMM, RESP, rigid body optimization, SF, symmetry and pop. for TD-DFT, various functionals, SOLVATOR                                   
                                                                         
[Other institutions]                                                     
  V. Asgeirsson          : NEB                                           
  Christoph Bannwarth    : sTDA-DFT, sTD-DFT, PBEh-3c, B97-3c, D3        
  Giovanni Bistoni       : ETS/NOCV, ADLD/ADEX, COVALED                  
  Martin Brehm           : Molecular dynamics                            
  Ronald Cardenas        : ETS/NOCV                                      
  Martina Colucci        : COVALED                                       
  Sebastian Ehlert       : rSCAN, r2SCAN, r2SCAN-3c, D4, dhf basis sets  
  Marvin Friede          : D4 for Fr, Ra, Ac-Lr                          
  Lars Goerigk           : TD-DFT with DH, B97 family of functionals     
  Stefan Grimme          : VdW corrections, initial TS optimization, DFT functionals, gCP, sTDA/sTD-DF 
  Waldemar Hujo          : DFT-NL                                        
  H. Jonsson             : NEB                                           
  Holger Kruse           : gCP                                           
  Marcel Mueller         : wB97X-3c, vDZP basis set                      
  Hagen Neugebauer       : wr2SCAN, Native XTB                           
  Gianluca Regni         : ADLD/ADEX                                     
  Tobias Risthaus        : pre 6.0 range-separated hybrid DFT and stability analysis
  Lukas Wittmann         : regularized MP2, r2SCAN double-hybrids, wr2SCAN        
                                                                         
We gratefully acknowledge several colleagues who have allowed us to      
interface, adapt or use parts of their codes:                            
  Ed Valeev, F. Pavosevic, A. Kumar             : LibInt (2-el integral package), F12 methods 
  Garnet Chan, S. Sharma, J. Yang, R. Olivares  : DMRG                   
  Ulf Ekstrom                                   : XCFun DFT Library      
  Mihaly Kallay                                 : mrcc  (arbitrary order and MRCC methods)
  Frank Weinhold                                : gennbo (NPA and NBO analysis)           
  Simon Mueller                                 : openCOSMO-RS                            
  Christopher J. Cramer and Donald G. Truhlar   : smd solvation model                     
  S Lehtola, MJT Oliveira, MAL Marques          : LibXC Library                           
  Liviu Ungur et al                             : ANISO software                          


 Your calculation uses the libint2 library for the computation of 2-el integrals
 For citations please refer to: http://libint.valeyev.net

 Your ORCA version has been built with support for libXC version: 7.0.0
 For citations please refer to: https://libxc.gitlab.io

 This ORCA versions uses:
   CBLAS   interface :  Fast vector & matrix operations
   LAPACKE interface :  Fast linear algebra routines
   SCALAPACK package :  Parallel linear algebra routines
   Shared memory     :  Shared parallel matrices
   BLAS/LAPACK       :  OpenBLAS 0.3.29  USE64BITINT DYNAMIC_ARCH NO_AFFINITY Zen SINGLE_THREADED
        Core in use  :  Zen
   Copyright (c) 2011-2014, The OpenBLAS Project


  ***********************************
  * Starting time: Thu Apr 23 17:22:05 2026
  * Host name:     vmi3233575
  * Process ID:    1364537
  * Working dir.:  /root/b12_scan/jobs/icosahedron_nn1.60
  ***********************************

NOTE: MaxCore=2500 MB was set to SCF,MP2,MDCI,CIPSI,MRCI,RASCI and CIS
      => If you want to overwrite this, your respective input block should be placed after the MaxCore statement
Your calculation utilizes the atom-pairwise dispersion correction
with the Becke-Johnson damping scheme (D3BJ)


================================================================================

----- Orbital basis set information -----
Your calculation utilizes the basis: def2-SVP
   F. Weigend and R. Ahlrichs, Phys. Chem. Chem. Phys. 7, 3297 (2005).

----- AuxJ basis set information -----
Your calculation utilizes the auxiliary basis: def2/J
   H-Rn: F. Weigend, Phys. Chem. Chem. Phys. 8, 1057 (2006).
   Fr-Lr: K. Eichkorn, F. Weigend, O. Treutler, R. Ahlrichs; Theor. Chem. Acc. 97, 119 (1997).

================================================================================
                                        WARNINGS
                       Please study these warnings very carefully!
================================================================================


WARNING: Geometry Optimization
  ===> : Switching off AutoStart
         For restart on a previous wavefunction, please use MOREAD

================================================================================
                                       INPUT FILE
================================================================================
NAME = icosahedron_nn1.60.inp
|  1> ! BP86 def2-SVP def2/J RI Opt TightSCF D3BJ
|  2> ! SlowConv
|  3> 
|  4> %pal nprocs 8 end
|  5> %maxcore 2500
|  6> 
|  7> %geom
|  8>   MaxIter 300
|  9> end
| 10> 
| 11> * xyz 0 1
| 12> B      0.00000000     -0.80000000     -1.29442719
| 13> B     -0.80000000     -1.29442719      0.00000000
| 14> B     -1.29442719      0.00000000     -0.80000000
| 15> B      0.00000000     -0.80000000      1.29442719
| 16> B     -0.80000000      1.29442719      0.00000000
| 17> B      1.29442719      0.00000000     -0.80000000
| 18> B      0.00000000      0.80000000     -1.29442719
| 19> B      0.80000000     -1.29442719      0.00000000
| 20> B     -1.29442719      0.00000000      0.80000000
| 21> B      0.00000000      0.80000000      1.29442719
| 22> B      0.80000000      1.29442719      0.00000000
| 23> B      1.29442719      0.00000000      0.80000000
| 24> *
| 25> 
| 26>                          ****END OF INPUT****
================================================================================

                       *****************************
                       * Geometry Optimization Run *
                       *****************************

Geometry optimization settings:
Update method            Update   .... BFGS
Choice of coordinates    CoordSys .... (2022) Redundant Internals
Initial Hessian          InHess   .... Almloef's Model
Max. no of cycles        MaxIter  .... 300

Convergence Tolerances:
Energy Change            TolE     ....  5.0000e-06 Eh
Max. Gradient            TolMAXG  ....  3.0000e-04 Eh/bohr
RMS Gradient             TolRMSG  ....  1.0000e-04 Eh/bohr
Max. Displacement        TolMAXD  ....  4.0000e-03 bohr
RMS Displacement         TolRMSD  ....  2.0000e-03 bohr
Strict Convergence                .... False

------------------------------------------------------------------------------
                        ORCA OPTIMIZATION COORDINATE SETUP
------------------------------------------------------------------------------

The optimization will be done in redundant internal coordinates (2022)
Making redundant internal coordinates   ...  (2022 redundants) done
Evaluating the initial hessian          ...  (Almloef) done
Evaluating the coordinates              ...  done
Calculating the B-matrix                .... done
Calculating the G-matrix                .... done
The number of degrees of freedom        ....  390

    -----------------------------------------------------------------
                    Redundant Internal Coordinates


    -----------------------------------------------------------------
         Definition                    Initial Value    Approx d2E/dq
    -----------------------------------------------------------------
      1. B(B   1,B   0)                  1.6000         0.387554   
      2. B(B   2,B   0)                  1.6000         0.387554   
      3. B(B   2,B   1)                  1.6000         0.387554   
      4. B(B   3,B   1)                  1.6000         0.387554   
      5. B(B   4,B   2)                  1.6000         0.387554   
      6. B(B   5,B   0)                  1.6000         0.387554   
      7. B(B   6,B   5)                  1.6000         0.387554   
      8. B(B   6,B   4)                  1.6000         0.387554   
      9. B(B   6,B   2)                  1.6000         0.387554   
     10. B(B   6,B   0)                  1.6000         0.387554   
     11. B(B   7,B   5)                  1.6000         0.387554   
     12. B(B   7,B   3)                  1.6000         0.387554   
     13. B(B   7,B   1)                  1.6000         0.387554   
     14. B(B   7,B   0)                  1.6000         0.387554   
     15. B(B   8,B   1)                  1.6000         0.387554   
     16. B(B   8,B   4)                  1.6000         0.387554   
     17. B(B   8,B   3)                  1.6000         0.387554   
     18. B(B   8,B   2)                  1.6000         0.387554   
     19. B(B   9,B   8)                  1.6000         0.387554   
     20. B(B   9,B   4)                  1.6000         0.387554   
     21. B(B   9,B   3)                  1.6000         0.387554   
     22. B(B  10,B   9)                  1.6000         0.387554   
     23. B(B  10,B   6)                  1.6000         0.387554   
     24. B(B  10,B   5)                  1.6000         0.387554   
     25. B(B  10,B   4)                  1.6000         0.387554   
     26. B(B  11,B  10)                  1.6000         0.387554   
     27. B(B  11,B   9)                  1.6000         0.387554   
     28. B(B  11,B   7)                  1.6000         0.387554   
     29. B(B  11,B   5)                  1.6000         0.387554   
     30. B(B  11,B   3)                  1.6000         0.387554   
     31. A(B   1,B   0,B   6)          108.0000         0.380075   
     32. A(B   1,B   0,B   5)          108.0000         0.380075   
     33. A(B   1,B   0,B   2)           60.0000         0.380075   
     34. A(B   2,B   0,B   5)          108.0000         0.380075   
     35. A(B   2,B   0,B   7)          108.0000         0.380075   
     36. A(B   5,B   0,B   6)           60.0000         0.380075   
     37. A(B   2,B   0,B   6)           60.0000         0.380075   
     38. A(B   5,B   0,B   7)           60.0000         0.380075   
     39. A(B   6,B   0,B   7)          108.0000         0.380075   
     40. A(B   1,B   0,B   7)           60.0000         0.380075   
     41. A(B   0,B   1,B   3)          108.0000         0.380075   
     42. A(B   7,B   1,B   8)          108.0000         0.380075   
     43. A(B   2,B   1,B   8)           60.0000         0.380075   
     44. A(B   0,B   1,B   8)          108.0000         0.380075   
     45. A(B   0,B   1,B   2)           60.0000         0.380075   
     46. A(B   2,B   1,B   7)          108.0000         0.380075   
     47. A(B   2,B   1,B   3)          108.0000         0.380075   
     48. A(B   3,B   1,B   7)           60.0000         0.380075   
     49. A(B   0,B   1,B   7)           60.0000         0.380075   
     50. A(B   3,B   1,B   8)           60.0000         0.380075   
     51. A(B   0,B   2,B   6)           60.0000         0.380075   
     52. A(B   0,B   2,B   1)           60.0000         0.380075   
     53. A(B   6,B   2,B   8)          108.0000         0.380075   
     54. A(B   4,B   2,B   8)           60.0000         0.380075   
     55. A(B   0,B   2,B   4)          108.0000         0.380075   
     56. A(B   0,B   2,B   8)          108.0000         0.380075   
     57. A(B   1,B   2,B   6)          108.0000         0.380075   
     58. A(B   1,B   2,B   8)           60.0000         0.380075   
     59. A(B   4,B   2,B   6)           60.0000         0.380075   
     60. A(B   1,B   2,B   4)          108.0000         0.380075   
     61. A(B   1,B   3,B   9)          108.0000         0.380075   
     62. A(B   7,B   3,B   9)          108.0000         0.380075   
     63. A(B   9,B   3,B  11)           60.0000         0.380075   
     64. A(B   8,B   3,B  11)          108.0000         0.380075   
     65. A(B   7,B   3,B  11)           60.0000         0.380075   
     66. A(B   1,B   3,B  11)          108.0000         0.380075   
     67. A(B   1,B   3,B   8)           60.0000         0.380075   
     68. A(B   8,B   3,B   9)           60.0000         0.380075   
     69. A(B   7,B   3,B   8)          108.0000         0.380075   
     70. A(B   1,B   3,B   7)           60.0000         0.380075   
     71. A(B   6,B   4,B   9)          108.0000         0.380075   
     72. A(B   2,B   4,B   9)          108.0000         0.380075   
     73. A(B   9,B   4,B  10)           60.0000         0.380075   
     74. A(B   8,B   4,B  10)          108.0000         0.380075   
     75. A(B   2,B   4,B   8)           60.0000         0.380075   
     76. A(B   6,B   4,B   8)          108.0000         0.380075   
     77. A(B   8,B   4,B   9)           60.0000         0.380075   
     78. A(B   6,B   4,B  10)           60.0000         0.380075   
     79. A(B   2,B   4,B  10)          108.0000         0.380075   
     80. A(B   2,B   4,B   6)           60.0000         0.380075   
     81. A(B  10,B   5,B  11)           60.0000         0.380075   
     82. A(B   7,B   5,B  11)           60.0000         0.380075   
     83. A(B   6,B   5,B  11)          108.0000         0.380075   
     84. A(B   0,B   5,B  11)          108.0000         0.380075   
     85. A(B   0,B   5,B   6)           60.0000         0.380075   
     86. A(B   6,B   5,B  10)           60.0000         0.380075   
     87. A(B   0,B   5,B  10)          108.0000         0.380075   
     88. A(B   6,B   5,B   7)          108.0000         0.380075   
     89. A(B   0,B   5,B   7)           60.0000         0.380075   
     90. A(B   7,B   5,B  10)          108.0000         0.380075   
     91. A(B   4,B   6,B   5)          108.0000         0.380075   
     92. A(B   2,B   6,B   5)          108.0000         0.380075   
     93. A(B   0,B   6,B   5)           60.0000         0.380075   
     94. A(B   5,B   6,B  10)           60.0000         0.380075   
     95. A(B   4,B   6,B  10)           60.0000         0.380075   
     96. A(B   2,B   6,B  10)          108.0000         0.380075   
     97. A(B   2,B   6,B   4)           60.0000         0.380075   
     98. A(B   0,B   6,B  10)          108.0000         0.380075   
     99. A(B   0,B   6,B   4)          108.0000         0.380075   
    100. A(B   0,B   6,B   2)           60.0000         0.380075   
    101. A(B   0,B   7,B   1)           60.0000         0.380075   
    102. A(B   5,B   7,B  11)           60.0000         0.380075   
    103. A(B   3,B   7,B  11)           60.0000         0.380075   
    104. A(B   0,B   7,B  11)          108.0000         0.380075   
    105. A(B   3,B   7,B   5)          108.0000         0.380075   
    106. A(B   1,B   7,B   5)          108.0000         0.380075   
    107. A(B   0,B   7,B   5)           60.0000         0.380075   
    108. A(B   1,B   7,B   3)           60.0000         0.380075   
    109. A(B   1,B   7,B  11)          108.0000         0.380075   
    110. A(B   0,B   7,B   3)          108.0000         0.380075   
    111. A(B   3,B   8,B   4)          108.0000         0.380075   
    112. A(B   2,B   8,B   4)           60.0000         0.380075   
    113. A(B   1,B   8,B   4)          108.0000         0.380075   
    114. A(B   2,B   8,B   3)          108.0000         0.380075   
    115. A(B   1,B   8,B   3)           60.0000         0.380075   
    116. A(B   1,B   8,B   2)           60.0000         0.380075   
    117. A(B   4,B   8,B   9)           60.0000         0.380075   
    118. A(B   3,B   8,B   9)           60.0000         0.380075   
    119. A(B   2,B   8,B   9)          108.0000         0.380075   
    120. A(B   1,B   8,B   9)          108.0000         0.380075   
    121. A(B  10,B   9,B  11)           60.0000         0.380075   
    122. A(B   8,B   9,B  11)          108.0000         0.380075   
    123. A(B   4,B   9,B  11)          108.0000         0.380075   
    124. A(B   3,B   9,B  11)           60.0000         0.380075   
    125. A(B   8,B   9,B  10)          108.0000         0.380075   
    126. A(B   4,B   9,B  10)           60.0000         0.380075   
    127. A(B   3,B   9,B  10)          108.0000         0.380075   
    128. A(B   4,B   9,B   8)           60.0000         0.380075   
    129. A(B   3,B   9,B   8)           60.0000         0.380075   
    130. A(B   3,B   9,B   4)          108.0000         0.380075   
    131. A(B   9,B  10,B  11)           60.0000         0.380075   
    132. A(B   5,B  10,B  11)           60.0000         0.380075   
    133. A(B   4,B  10,B  11)          108.0000         0.380075   
    134. A(B   6,B  10,B  11)          108.0000         0.380075   
    135. A(B   6,B  10,B   9)          108.0000         0.380075   
    136. A(B   5,B  10,B   9)          108.0000         0.380075   
    137. A(B   4,B  10,B   9)           60.0000         0.380075   
    138. A(B   5,B  10,B   6)           60.0000         0.380075   
    139. A(B   4,B  10,B   6)           60.0000         0.380075   
    140. A(B   4,B  10,B   5)          108.0000         0.380075   
    141. A(B   9,B  11,B  10)           60.0000         0.380075   
    142. A(B   7,B  11,B  10)          108.0000         0.380075   
    143. A(B   5,B  11,B  10)           60.0000         0.380075   
    144. A(B   3,B  11,B  10)          108.0000         0.380075   
    145. A(B   7,B  11,B   9)          108.0000         0.380075   
    146. A(B   5,B  11,B   9)          108.0000         0.380075   
    147. A(B   3,B  11,B   9)           60.0000         0.380075   
    148. A(B   5,B  11,B   7)           60.0000         0.380075   
    149. A(B   3,B  11,B   7)           60.0000         0.380075   
    150. A(B   3,B  11,B   5)          108.0000         0.380075   
    151. D(B   7,B   1,B   0,B   2)   -138.1897         0.010000   
    152. D(B   2,B   1,B   0,B   5)    100.8123         0.010000   
    153. D(B   3,B   1,B   0,B   7)     37.3774         0.010000   
    154. D(B   3,B   1,B   0,B   5)     -0.0000         0.010000   
    155. D(B   2,B   1,B   0,B   6)     37.3774         0.010000   
    156. D(B   3,B   1,B   0,B   6)    -63.4349         0.010000   
    157. D(B   3,B   1,B   0,B   2)   -100.8123         0.010000   
    158. D(B   2,B   1,B   0,B   7)    138.1897         0.010000   
    159. D(B   6,B   2,B   0,B   1)    138.1897         0.010000   
    160. D(B   0,B   2,B   1,B   7)     37.3774         0.010000   
    161. D(B   0,B   2,B   1,B   8)    138.1897         0.010000   
    162. D(B   1,B   2,B   0,B   6)   -138.1897         0.010000   
    163. D(B   4,B   2,B   1,B   3)     -0.0000         0.010000   
    164. D(B   4,B   2,B   1,B   0)   -100.8123         0.010000   
    165. D(B   4,B   2,B   0,B   6)    -37.3774         0.010000   
    166. D(B   1,B   2,B   0,B   7)    -37.3774         0.010000   
    167. D(B   1,B   2,B   0,B   5)   -100.8123         0.010000   
    168. D(B   6,B   2,B   1,B   0)    -37.3774         0.010000   
    169. D(B   0,B   2,B   1,B   3)    100.8123         0.010000   
    170. D(B   4,B   2,B   0,B   7)     63.4349         0.010000   
    171. D(B   4,B   2,B   0,B   5)     -0.0000         0.010000   
    172. D(B   4,B   2,B   1,B   8)     37.3774         0.010000   
    173. D(B   4,B   2,B   0,B   1)    100.8123         0.010000   
    174. D(B   4,B   2,B   1,B   7)    -63.4349         0.010000   
    175. D(B   8,B   3,B   1,B   7)    138.1897         0.010000   
    176. D(B   7,B   3,B   1,B   2)   -100.8123         0.010000   
    177. D(B   9,B   3,B   1,B   0)     63.4349         0.010000   
    178. D(B   7,B   3,B   1,B   0)    -37.3774         0.010000   
    179. D(B   8,B   3,B   1,B   2)     37.3774         0.010000   
    180. D(B   7,B   3,B   1,B   8)   -138.1897         0.010000   
    181. D(B   8,B   3,B   1,B   0)    100.8123         0.010000   
    182. D(B   9,B   3,B   1,B   2)      0.0000         0.010000   
    183. D(B   8,B   4,B   2,B   6)   -138.1897         0.010000   
    184. D(B   9,B   4,B   2,B   0)    -63.4349         0.010000   
    185. D(B   6,B   4,B   2,B   0)     37.3774         0.010000   
    186. D(B   8,B   4,B   2,B   0)   -100.8123         0.010000   
    187. D(B   6,B   4,B   2,B   1)    100.8123         0.010000   
    188. D(B   9,B   4,B   2,B   1)      0.0000         0.010000   
    189. D(B   6,B   4,B   2,B   8)    138.1897         0.010000   
    190. D(B   8,B   4,B   2,B   1)    -37.3774         0.010000   
    191. D(B   6,B   5,B   0,B   7)   -138.1897         0.010000   
    192. D(B   7,B   5,B   0,B   2)    100.8123         0.010000   
    193. D(B   7,B   5,B   0,B   6)    138.1897         0.010000   
    194. D(B  10,B   5,B   0,B   1)    -63.4349         0.010000   
    195. D(B  10,B   5,B   0,B   2)      0.0000         0.010000   
    196. D(B   7,B   5,B   0,B   1)     37.3774         0.010000   
    197. D(B   6,B   5,B   0,B   2)    -37.3774         0.010000   
    198. D(B   6,B   5,B   0,B   1)   -100.8123         0.010000   
    199. D(B   4,B   6,B   2,B   0)   -138.1897         0.010000   
    200. D(B   0,B   6,B   2,B   4)    138.1897         0.010000   
    201. D(B   4,B   6,B   0,B   2)     37.3774         0.010000   
    202. D(B   2,B   6,B   0,B   7)   -100.8123         0.010000   
    203. D(B   4,B   6,B   2,B   1)   -100.8123         0.010000   
    204. D(B   5,B   6,B   0,B   1)    100.8123         0.010000   
    205. D(B   4,B   6,B   0,B   7)    -63.4349         0.010000   
    206. D(B   4,B   6,B   0,B   1)      0.0000         0.010000   
    207. D(B   0,B   6,B   2,B   1)     37.3774         0.010000   
    208. D(B   2,B   6,B   0,B   5)   -138.1897         0.010000   
    209. D(B   4,B   6,B   2,B   8)    -37.3774         0.010000   
    210. D(B   0,B   6,B   2,B   8)    100.8123         0.010000   
    211. D(B   4,B   6,B   0,B   5)   -100.8123         0.010000   
    212. D(B   2,B   6,B   0,B   1)    -37.3774         0.010000   
    213. D(B   4,B   6,B   5,B   0)    100.8123         0.010000   
    214. D(B   5,B   6,B   2,B   0)    -37.3774         0.010000   
    215. D(B   2,B   6,B   5,B  10)   -100.8123         0.010000   
    216. D(B   2,B   6,B   5,B   7)     -0.0000         0.010000   
    217. D(B   2,B   6,B   5,B   0)     37.3774         0.010000   
    218. D(B   0,B   6,B   5,B  10)   -138.1897         0.010000   
    219. D(B   0,B   6,B   5,B   7)    -37.3774         0.010000   
    220. D(B   5,B   6,B   4,B   2)   -100.8123         0.010000   
    221. D(B   0,B   6,B   4,B   9)     63.4349         0.010000   
    222. D(B   2,B   6,B   4,B   8)     37.3774         0.010000   
    223. D(B   0,B   6,B   4,B  10)    100.8123         0.010000   
    224. D(B   0,B   6,B   5,B  11)   -100.8123         0.010000   
    225. D(B   2,B   6,B   4,B  10)    138.1897         0.010000   
    226. D(B   0,B   6,B   4,B   8)      0.0000         0.010000   
    227. D(B   0,B   6,B   4,B   2)    -37.3774         0.010000   
    228. D(B   2,B   6,B   5,B  11)    -63.4349         0.010000   
    229. D(B   5,B   6,B   2,B   1)      0.0000         0.010000   
    230. D(B   2,B   6,B   4,B   9)    100.8123         0.010000   
    231. D(B   3,B   7,B   5,B   0)   -100.8123         0.010000   
    232. D(B   1,B   7,B   5,B  10)     63.4349         0.010000   
    233. D(B   1,B   7,B   5,B   6)      0.0000         0.010000   
    234. D(B   1,B   7,B   5,B   0)    -37.3774         0.010000   
    235. D(B   0,B   7,B   5,B  10)    100.8123         0.010000   
    236. D(B   0,B   7,B   5,B   6)     37.3774         0.010000   
    237. D(B   5,B   7,B   3,B   1)    100.8123         0.010000   
    238. D(B   1,B   7,B   3,B   9)   -100.8123         0.010000   
    239. D(B   1,B   7,B   3,B   8)    -37.3774         0.010000   
    240. D(B   0,B   7,B   3,B  11)   -100.8123         0.010000   
    241. D(B   0,B   7,B   3,B   1)     37.3774         0.010000   
    242. D(B   5,B   7,B   1,B   2)      0.0000         0.010000   
    243. D(B   0,B   7,B   1,B   8)   -100.8123         0.010000   
    244. D(B   3,B   7,B   1,B   2)    100.8123         0.010000   
    245. D(B   3,B   7,B   1,B   0)    138.1897         0.010000   
    246. D(B   5,B   7,B   1,B   0)     37.3774         0.010000   
    247. D(B   0,B   7,B   1,B   3)   -138.1897         0.010000   
    248. D(B   0,B   7,B   1,B   2)    -37.3774         0.010000   
    249. D(B   5,B   7,B   0,B   1)   -138.1897         0.010000   
    250. D(B   3,B   7,B   1,B   8)     37.3774         0.010000   
    251. D(B   3,B   7,B   0,B   6)     63.4349         0.010000   
    252. D(B   1,B   7,B   3,B  11)   -138.1897         0.010000   
    253. D(B   3,B   7,B   0,B   5)    100.8123         0.010000   
    254. D(B   0,B   7,B   3,B   9)    -63.4349         0.010000   
    255. D(B   3,B   7,B   0,B   2)      0.0000         0.010000   
    256. D(B   0,B   7,B   5,B  11)    138.1897         0.010000   
    257. D(B   3,B   7,B   0,B   1)    -37.3774         0.010000   
    258. D(B   1,B   7,B   0,B   2)     37.3774         0.010000   
    259. D(B   1,B   7,B   5,B  11)    100.8123         0.010000   
    260. D(B   1,B   7,B   0,B   5)    138.1897         0.010000   
    261. D(B   0,B   7,B   3,B   8)     -0.0000         0.010000   
    262. D(B   1,B   7,B   0,B   6)    100.8123         0.010000   
    263. D(B   3,B   8,B   2,B   4)   -100.8123         0.010000   
    264. D(B   3,B   8,B   2,B   1)     37.3774         0.010000   
    265. D(B   3,B   8,B   2,B   0)      0.0000         0.010000   
    266. D(B   1,B   8,B   2,B   4)   -138.1897         0.010000   
    267. D(B   1,B   8,B   2,B   0)    -37.3774         0.010000   
    268. D(B   4,B   8,B   1,B   2)    -37.3774         0.010000   
    269. D(B   3,B   8,B   1,B   0)   -100.8123         0.010000   
    270. D(B   2,B   8,B   1,B   0)     37.3774         0.010000   
    271. D(B   2,B   8,B   1,B   7)    100.8123         0.010000   
    272. D(B   1,B   8,B   2,B   6)   -100.8123         0.010000   
    273. D(B   2,B   8,B   1,B   3)    138.1897         0.010000   
    274. D(B   3,B   8,B   1,B   2)   -138.1897         0.010000   
    275. D(B   4,B   8,B   1,B   0)      0.0000         0.010000   
    276. D(B   3,B   8,B   2,B   6)    -63.4349         0.010000   
    277. D(B   3,B   8,B   1,B   7)    -37.3774         0.010000   
    278. D(B   3,B   8,B   4,B   2)    100.8123         0.010000   
    279. D(B   2,B   8,B   4,B   9)   -138.1897         0.010000   
    280. D(B   2,B   8,B   4,B   6)    -37.3774         0.010000   
    281. D(B   1,B   8,B   4,B  10)    -63.4349         0.010000   
    282. D(B   1,B   8,B   4,B   6)     -0.0000         0.010000   
    283. D(B   1,B   8,B   4,B   2)     37.3774         0.010000   
    284. D(B   4,B   8,B   3,B   1)   -100.8123         0.010000   
    285. D(B   2,B   8,B   3,B  11)     63.4349         0.010000   
    286. D(B   2,B   8,B   3,B   9)    100.8123         0.010000   
    287. D(B   2,B   8,B   3,B   7)      0.0000         0.010000   
    288. D(B   1,B   8,B   4,B   9)   -100.8123         0.010000   
    289. D(B   2,B   8,B   3,B   1)    -37.3774         0.010000   
    290. D(B   1,B   8,B   3,B  11)    100.8123         0.010000   
    291. D(B   1,B   8,B   3,B   9)    138.1897         0.010000   
    292. D(B   2,B   8,B   4,B  10)   -100.8123         0.010000   
    293. D(B   1,B   8,B   3,B   7)     37.3774         0.010000   
    294. D(B   4,B   8,B   2,B   0)    100.8123         0.010000   
    295. D(B  10,B   9,B   8,B   2)     -0.0000         0.010000   
    296. D(B   4,B   9,B   8,B   3)    138.1897         0.010000   
    297. D(B   4,B   9,B   8,B   2)     37.3774         0.010000   
    298. D(B   4,B   9,B   8,B   1)    100.8123         0.010000   
    299. D(B   3,B   9,B   8,B   4)   -138.1897         0.010000   
    300. D(B   3,B   9,B   8,B   2)   -100.8123         0.010000   
    301. D(B   3,B   9,B   8,B   1)    -37.3774         0.010000   
    302. D(B  10,B   9,B   4,B   2)    100.8123         0.010000   
    303. D(B   8,B   9,B   4,B  10)   -138.1897         0.010000   
    304. D(B   8,B   9,B   4,B   6)   -100.8123         0.010000   
    305. D(B   8,B   9,B   4,B   2)    -37.3774         0.010000   
    306. D(B   3,B   9,B   4,B  10)   -100.8123         0.010000   
    307. D(B   3,B   9,B   4,B   8)     37.3774         0.010000   
    308. D(B   3,B   9,B   4,B   6)    -63.4349         0.010000   
    309. D(B   3,B   9,B   4,B   2)     -0.0000         0.010000   
    310. D(B  10,B   9,B   3,B   1)    -63.4349         0.010000   
    311. D(B   8,B   9,B   3,B  11)    138.1897         0.010000   
    312. D(B   8,B   9,B   3,B   7)    100.8123         0.010000   
    313. D(B   8,B   9,B   3,B   1)     37.3774         0.010000   
    314. D(B   4,B   9,B   3,B  11)    100.8123         0.010000   
    315. D(B   4,B   9,B   3,B   8)    -37.3774         0.010000   
    316. D(B  10,B   9,B   8,B   1)     63.4349         0.010000   
    317. D(B   4,B   9,B   3,B   7)     63.4349         0.010000   
    318. D(B   4,B   9,B   3,B   1)      0.0000         0.010000   
    319. D(B   6,B  10,B   9,B   3)     63.4349         0.010000   
    320. D(B   5,B  10,B   9,B   8)    -63.4349         0.010000   
    321. D(B   5,B  10,B   9,B   4)   -100.8123         0.010000   
    322. D(B   5,B  10,B   9,B   3)      0.0000         0.010000   
    323. D(B   4,B  10,B   9,B  11)    138.1897         0.010000   
    324. D(B   4,B  10,B   9,B   8)     37.3774         0.010000   
    325. D(B   4,B  10,B   9,B   3)    100.8123         0.010000   
    326. D(B   9,B  10,B   6,B   2)     -0.0000         0.010000   
    327. D(B   5,B  10,B   6,B   4)    138.1897         0.010000   
    328. D(B   5,B  10,B   6,B   2)    100.8123         0.010000   
    329. D(B   5,B  10,B   6,B   0)     37.3774         0.010000   
    330. D(B   4,B  10,B   6,B   2)    -37.3774         0.010000   
    331. D(B   4,B  10,B   6,B   0)   -100.8123         0.010000   
    332. D(B   9,B  10,B   5,B   0)     63.4349         0.010000   
    333. D(B   6,B  10,B   5,B  11)   -138.1897         0.010000   
    334. D(B   6,B  10,B   5,B   7)   -100.8123         0.010000   
    335. D(B   6,B  10,B   5,B   0)    -37.3774         0.010000   
    336. D(B   4,B  10,B   6,B   5)   -138.1897         0.010000   
    337. D(B   4,B  10,B   5,B  11)   -100.8123         0.010000   
    338. D(B   4,B  10,B   5,B   7)    -63.4349         0.010000   
    339. D(B   4,B  10,B   5,B   6)     37.3774         0.010000   
    340. D(B   9,B  10,B   6,B   0)    -63.4349         0.010000   
    341. D(B   4,B  10,B   5,B   0)     -0.0000         0.010000   
    342. D(B   9,B  10,B   4,B   2)   -100.8123         0.010000   
    343. D(B   6,B  10,B   4,B   9)    138.1897         0.010000   
    344. D(B   6,B  10,B   4,B   8)    100.8123         0.010000   
    345. D(B   6,B  10,B   4,B   2)     37.3774         0.010000   
    346. D(B   5,B  10,B   4,B   9)    100.8123         0.010000   
    347. D(B   5,B  10,B   4,B   8)     63.4349         0.010000   
    348. D(B   5,B  10,B   9,B  11)     37.3774         0.010000   
    349. D(B   5,B  10,B   4,B   6)    -37.3774         0.010000   
    350. D(B   5,B  10,B   4,B   2)      0.0000         0.010000   
    351. D(B   7,B  11,B  10,B   4)     63.4349         0.010000   
    352. D(B   5,B  11,B  10,B   6)     37.3774         0.010000   
    353. D(B   5,B  11,B  10,B   4)    100.8123         0.010000   
    354. D(B   3,B  11,B  10,B   9)     37.3774         0.010000   
    355. D(B   3,B  11,B  10,B   5)   -100.8123         0.010000   
    356. D(B   3,B  11,B  10,B   4)      0.0000         0.010000   
    357. D(B   7,B  11,B   9,B   3)     37.3774         0.010000   
    358. D(B   5,B  11,B   9,B   8)     63.4349         0.010000   
    359. D(B   5,B  11,B   9,B   4)      0.0000         0.010000   
    360. D(B   5,B  11,B   9,B   3)    100.8123         0.010000   
    361. D(B   3,B  11,B   9,B  10)   -138.1897         0.010000   
    362. D(B   3,B  11,B   9,B   8)    -37.3774         0.010000   
    363. D(B   3,B  11,B   9,B   4)   -100.8123         0.010000   
    364. D(B   9,B  11,B   7,B   1)     -0.0000         0.010000   
    365. D(B   5,B  11,B   7,B   3)   -138.1897         0.010000   
    366. D(B   5,B  11,B   7,B   1)   -100.8123         0.010000   
    367. D(B   5,B  11,B   7,B   0)    -37.3774         0.010000   
    368. D(B   3,B  11,B   7,B   5)    138.1897         0.010000   
    369. D(B   3,B  11,B   7,B   1)     37.3774         0.010000   
    370. D(B   3,B  11,B   7,B   0)    100.8123         0.010000   
    371. D(B   9,B  11,B   5,B   0)    -63.4349         0.010000   
    372. D(B   9,B  11,B   7,B   0)     63.4349         0.010000   
    373. D(B   7,B  11,B   5,B  10)    138.1897         0.010000   
    374. D(B   7,B  11,B   5,B   6)    100.8123         0.010000   
    375. D(B   7,B  11,B   5,B   0)     37.3774         0.010000   
    376. D(B   3,B  11,B   5,B  10)    100.8123         0.010000   
    377. D(B   3,B  11,B   5,B   7)    -37.3774         0.010000   
    378. D(B   3,B  11,B   5,B   6)     63.4349         0.010000   
    379. D(B   3,B  11,B   5,B   0)      0.0000         0.010000   
    380. D(B   5,B  11,B   9,B  10)    -37.3774         0.010000   
    381. D(B   9,B  11,B   3,B   1)    100.8123         0.010000   
    382. D(B   7,B  11,B   3,B   9)   -138.1897         0.010000   
    383. D(B   7,B  11,B   3,B   8)   -100.8123         0.010000   
    384. D(B   3,B  11,B  10,B   6)    -63.4349         0.010000   
    385. D(B   7,B  11,B   3,B   1)    -37.3774         0.010000   
    386. D(B   5,B  11,B   3,B   9)   -100.8123         0.010000   
    387. D(B   5,B  11,B   3,B   8)    -63.4349         0.010000   
    388. D(B   5,B  11,B  10,B   9)    138.1897         0.010000   
    389. D(B   5,B  11,B   3,B   7)     37.3774         0.010000   
    390. D(B   5,B  11,B   3,B   1)     -0.0000         0.010000   
    -----------------------------------------------------------------

Number of atoms                         .... 12
Number of degrees of freedom            .... 390


         *************************************************************
         *                GEOMETRY OPTIMIZATION CYCLE   1            *
         *************************************************************
---------------------------------
CARTESIAN COORDINATES (ANGSTROEM)
---------------------------------
  B      0.000000   -0.800000   -1.294427
  B     -0.800000   -1.294427    0.000000
  B     -1.294427    0.000000   -0.800000
  B      0.000000   -0.800000    1.294427
  B     -0.800000    1.294427    0.000000
  B      1.294427    0.000000   -0.800000
  B      0.000000    0.800000   -1.294427
  B      0.800000   -1.294427    0.000000
  B     -1.294427    0.000000    0.800000
  B      0.000000    0.800000    1.294427
  B      0.800000    1.294427    0.000000
  B      1.294427    0.000000    0.800000

----------------------------
CARTESIAN COORDINATES (A.U.)
----------------------------
  NO LB      ZA    FRAG     MASS         X           Y           Z
   0 B     5.0000    0    10.810    0.000000   -1.511781   -2.446113
   1 B     5.0000    0    10.810   -1.511781   -2.446113    0.000000
   2 B     5.0000    0    10.810   -2.446113    0.000000   -1.511781
   3 B     5.0000    0    10.810    0.000000   -1.511781    2.446113
   4 B     5.0000    0    10.810   -1.511781    2.446113    0.000000
   5 B     5.0000    0    10.810    2.446113    0.000000   -1.511781
   6 B     5.0000    0    10.810    0.000000    1.511781   -2.446113
   7 B     5.0000    0    10.810    1.511781   -2.446113    0.000000
   8 B     5.0000    0    10.810   -2.446113    0.000000    1.511781
   9 B     5.0000    0    10.810    0.000000    1.511781    2.446113
  10 B     5.0000    0    10.810    1.511781    2.446113    0.000000
  11 B     5.0000    0    10.810    2.446113    0.000000    1.511781

--------------------------------
INTERNAL COORDINATES (ANGSTROEM)
--------------------------------
 B      0   0   0     0.000000000000     0.00000000     0.00000000
 B      1   0   0     1.599999998882     0.00000000     0.00000000
 B      2   1   0     1.599999998882    60.00000000     0.00000000
 B      2   1   3     1.599999998882   107.99999999   259.18768299
 B      3   2   1     1.599999998882   107.99999999   259.18768299
 B      1   2   3     1.599999998882   108.00000003   100.81231693
 B      5   3   2     1.599999998882    60.00000000   100.81231701
 B      1   2   3     1.599999998882    60.00000005   138.18968509
 B      2   1   3     1.599999998882   108.00000003   322.62263182
 B      5   3   2     1.599999998882   108.00000003     0.00000000
 B      6   1   2     1.599999998882   108.00000003   296.56505124
 B      8   1   2     1.599999998882   108.00000003   259.18768309

---------------------------
INTERNAL COORDINATES (A.U.)
---------------------------
 B      0   0   0     0.000000000000     0.00000000     0.00000000
 B      1   0   0     3.023561812161     0.00000000     0.00000000
 B      2   1   0     3.023561812161    60.00000000     0.00000000
 B      2   1   3     3.023561812161   107.99999999   259.18768299
 B      3   2   1     3.023561812161   107.99999999   259.18768299
 B      1   2   3     3.023561812161   108.00000003   100.81231693
 B      5   3   2     3.023561812161    60.00000000   100.81231701
 B      1   2   3     3.023561812161    60.00000005   138.18968509
 B      2   1   3     3.023561812161   108.00000003   322.62263182
 B      5   3   2     3.023561812161   108.00000003     0.00000000
 B      6   1   2     3.023561812161   108.00000003   296.56505124
 B      8   1   2     3.023561812161   108.00000003   259.18768309

---------------------
BASIS SET INFORMATION
---------------------
There are 1 groups of distinct atoms

 Group   1 Type B   : 7s4p1d contracted to 3s2p1d pattern {511/31/1}

Atom   0B    basis set group =>   1
Atom   1B    basis set group =>   1
Atom   2B    basis set group =>   1
Atom   3B    basis set group =>   1
Atom   4B    basis set group =>   1
Atom   5B    basis set group =>   1
Atom   6B    basis set group =>   1
Atom   7B    basis set group =>   1
Atom   8B    basis set group =>   1
Atom   9B    basis set group =>   1
Atom  10B    basis set group =>   1
Atom  11B    basis set group =>   1
---------------------------------
AUXILIARY/J BASIS SET INFORMATION
---------------------------------
There are 1 groups of distinct atoms

 Group   1 Type B   : 12s5p4d2f1g contracted to 6s4p3d1f1g pattern {711111/2111/211/2/1}

Atom   0B    basis set group =>   1
Atom   1B    basis set group =>   1
Atom   2B    basis set group =>   1
Atom   3B    basis set group =>   1
Atom   4B    basis set group =>   1
Atom   5B    basis set group =>   1
Atom   6B    basis set group =>   1
Atom   7B    basis set group =>   1
Atom   8B    basis set group =>   1
Atom   9B    basis set group =>   1
Atom  10B    basis set group =>   1
Atom  11B    basis set group =>   1


           ************************************************************
           *        Program running with 8 parallel MPI-processes     *
           *              working on a common directory               *
           ************************************************************
------------------------------------------------------------------------------
                             ORCA STARTUP CALCULATIONS
                           -- RI-GTO INTEGRALS CHOSEN --
------------------------------------------------------------------------------
------------------------------------------------------------------------------
                   ___                                                        
                  /   \      - P O W E R E D   B Y -                         
                 /     \                                                     
                 |  |  |   _    _      __       _____    __    __             
                 |  |  |  | |  | |    /  \     |  _  \  |  |  /  |          
                  \  \/   | |  | |   /    \    | | | |  |  | /  /          
                 / \  \   | |__| |  /  /\  \   | |_| |  |  |/  /          
                |  |  |   |  __  | /  /__\  \  |    /   |      \           
                |  |  |   | |  | | |   __   |  |    \   |  |\   \          
                \     /   | |  | | |  |  |  |  | |\  \  |  | \   \       
                 \___/    |_|  |_| |__|  |__|  |_| \__\ |__|  \__/        
                                                                              
                      - O R C A' S   B I G   F R I E N D -                    
                                      &                                       
                       - I N T E G R A L  F E E D E R -                       
                                                                              
 v1 FN, 2020, v2 2021, v3 2022-2024                                           
------------------------------------------------------------------------------


----------------------
SHARK INTEGRAL PACKAGE
----------------------

Number of atoms                             ...     12
Number of basis functions                   ...    168
Number of shells                            ...     72
Maximum angular momentum                    ...      2
Integral batch strategy                     ... SHARK/LIBINT Hybrid
RI-J (if used) integral strategy            ... SPLIT-RIJ (Revised 2003 algorithm where possible)
Printlevel                                  ...      1
Contraction scheme used                     ... SEGMENTED contraction
Prescreening option                         ... SCHWARTZ
   Thresh                                   ... 2.500e-11
   Tcut                                     ... 2.500e-12
   Tpresel                                  ... 2.500e-12 
Coulomb Range Separation                    ... NOT USED
Exchange Range Separation                   ... NOT USED
Multipole approximations                    ... NOT USED
Finite Nucleus Model                        ... NOT USED
CABS basis                                  ... NOT available
Auxiliary Coulomb fitting basis             ... AVAILABLE
   # of basis functions in Aux-J            ...    588
   # of shells in Aux-J                     ...    180
   Maximum angular momentum in Aux-J        ...      4
Auxiliary J/K fitting basis                 ... NOT available
Auxiliary Correlation fitting basis         ... NOT available
Auxiliary 'external' fitting basis          ... NOT available

Checking pre-screening integrals            ... done (  0.0 sec) Dimension = 72
   => SHARK Basis and OBASIS are compatible. Storing Pre-screening
Shell pair information
Shell pair cut-off parameter TPreSel        ...   2.5e-12
Total number of shell pairs                 ...      2628
Shell pairs after pre-screening             ...      2592
Total number of primitive shell pairs       ...     10596
Primitive shell pairs kept                  ...      8400
          la=0 lb=0:    630 shell pairs
          la=1 lb=0:    864 shell pairs
          la=1 lb=1:    300 shell pairs
          la=2 lb=0:    432 shell pairs
          la=2 lb=1:    288 shell pairs
          la=2 lb=2:     78 shell pairs

Checking whether 4 symmetric matrices of dimension 168 fit in memory
:Max Core in MB      =   2500.00
 MB in use           =      6.99
 MB left             =   2493.01
 MB needed           =      0.43
 Data fit in memory  = YES
Calculating RI/J V-Matrix + Cholesky decomp.... done (  0.1 sec)
Calculating Nuclear repulsion               ... done (  0.0 sec) ENN=    427.437981588947 Eh

Diagonalization of the overlap matrix:
Smallest eigenvalue                        ... 6.915e-05
Time for diagonalization                   ...    0.014 sec
Threshold for overlap eigenvalues          ... 1.000e-07
Number of eigenvalues below threshold      ... 0
Time for construction of square roots      ...    0.014 sec
Total time needed                          ...    0.132 sec

-------------------
DFT GRID GENERATION
-------------------

General Integration Accuracy     IntAcc      ... 4.388
Radial Grid Type                 RadialGrid  ... OptM3 with GC (2021)
Angular Grid (max. ang.)         AngularGrid ... 4 (Lebedev-302)
Angular grid pruning method      GridPruning ... 4 (adaptive)
Weight generation scheme         WeightScheme... mBecke (2022)
Basis function cutoff            BFCut       ... 1.0000e-11
Integration weight cutoff        WCut        ... 1.0000e-14
Partially contracted basis set               ... off
Rotationally invariant grid construction     ... off
Angular grids for H and He will be reduced by one unit

Total number of grid points                  ...    69024
Total number of batches                      ...     1086
Average number of points per batch           ...       63
Average number of grid points per atom       ...     5752
Grids setup in   0.9 sec
Initializing property integral containers    ... done (  0.0 sec)

SHARK setup successfully completed in   1.6 seconds

Maximum memory used throughout the entire STARTUP-calculation: 19.6 MB


           ************************************************************
           *        Program running with 8 parallel MPI-processes     *
           *              working on a common directory               *
           ************************************************************
-------------------------------------------------------------------------------
                                 ORCA GUESS
                   Start orbitals & Density for SCF / CASSCF
-------------------------------------------------------------------------------

------------
SCF SETTINGS
------------
Hamiltonian:
 Density Functional     Method          .... DFT(GTOs)
 Exchange Functional    Exchange        .... B88
   X-Alpha parameter    XAlpha          ....  0.666667
   Becke's b parameter  XBeta           ....  0.004200
 Correlation Functional Correlation     .... P86
 LDA part of GGA corr.  LDAOpt          .... PW91-LDA
 Gradients option       PostSCFGGA      .... off
   NL short-range parameter             ....  4.400000
 RI-approximation to the Coulomb term is turned on
   Number of AuxJ basis functions       .... 588


General Settings:
 Integral files         IntName         .... icosahedron_nn1.60
 Hartree-Fock type      HFTyp           .... RHF
 Total Charge           Charge          ....    0
 Multiplicity           Mult            ....    1
 Number of Electrons    NEL             ....   60
 Basis Dimension        Dim             ....  168
 Nuclear Repulsion      ENuc            ....    427.4379815889 Eh

Convergence Acceleration:
 AO-DIIS                CNVDIIS         .... on
   Start iteration      DIISMaxIt       ....     0
   Startup error        DIISStart       ....  0.200000
   # of expansion vecs  DIISMaxEq       ....     5
   Bias factor          DIISBfac        ....   1.050
   Max. coefficient     DIISMaxC        ....  10.000
 MO-DIIS                CNVKDIIS        .... off
 Trust-Rad. Augm. Hess. CNVTRAH         .... auto
   Auto Start mean grad. ratio tolernc. ....  1.125000
   Auto Start start iteration           ....    50
   Auto Start num. interpolation iter.  ....    10
   Max. Number of Micro iterations      ....    24
   Max. Number of Macro iterations      .... Maxiter - #DIIS iter
   Number of Davidson start vectors     ....     2
   Converg. threshold    (grad. norm)   ....   1.000e-05
   Grad. Scal. Fac. for Micro threshold ....   0.100
   Minimum threshold for Micro iter.    ....   1.000e-02
   NR start threshold (gradient norm)   ....   1.000e-04
   Initial trust radius                 ....   0.400
   Minimum AH scaling param. (alpha)    ....   1.000
   Maximum AH scaling param. (alpha)    .... 1000.000
   Quad. conv. algorithm                .... NR
   White noise on init. David. guess    .... on
   Maximum white noise                  ....   0.010
   Pseudo random numbers                .... off
   Inactive MOs                         .... canonical
   Orbital update algorithm             .... Taylor
   Preconditioner                       .... Diag
   Full preconditioner red. dimension   ....   250
 SOSCF                 CNVSOSCF           .... on
   Start iteration     SOSCFMaxIt         ....   150
   Startup grad/error  SOSCFStart         ....  0.001000
   Hessian update      SOSCFHessUp        .... L-BFGS
   Autom. constraints  SOSCFAutoConstrain .... off
 Level Shifting         CNVShift        .... on
   Level shift para.    LevelShift      ....    0.2500
   Turn off err/grad.   ShiftErr        ....    0.0000
 Zerner damping         CNVZerner       .... off
 Static damping         CNVDamp         .... on
   Fraction old density DampFac         ....    0.8500
   Max. Damping (<1)    DampMax         ....    0.9800
   Min. Damping (>=0)   DampMin         ....    0.0000
   Turn off err/grad.   DampErr         ....    0.0300

SCF Procedure:
 Maximum # iterations   MaxIter         ....   125
 SCF integral mode      SCFMode         .... Direct
   Integral package                     .... SHARK and LIBINT hybrid scheme
 Reset frequency        DirectResetFreq ....    20
 Integral Threshold     Thresh          ....  2.500e-11 Eh
 Primitive CutOff       TCut            ....  2.500e-12 Eh

Convergence Tolerance:
 Convergence Check Mode ConvCheckMode   .... Total+1el-Energy
 Convergence forced     ConvForced      .... 0
 Energy Change          TolE            ....  1.000e-08 Eh
 1-El. energy change                    ....  1.000e-05 Eh
 Orbital Gradient       TolG            ....  1.000e-05
 Orbital Rotation angle TolX            ....  1.000e-05
 DIIS Error             TolErr          ....  5.000e-07

------------------------------
INITIAL GUESS: MODEL POTENTIAL
------------------------------
Loading Hartree-Fock densities                     ... done
Calculating cut-offs                               ... done
Initializing the effective Hamiltonian             ... done
Setting up the integral package (SHARK)            ... done
Starting the Coulomb interaction                   ... done (   0.1 sec)
Making the grid                                    ... done (   0.5 sec)
Mapping shells                                     ... done
Starting the XC term evaluation                    ... done (   0.1 sec)
  promolecular density results
     # of electrons  =     60.058416264
     EX              =    -46.721041462
     EC              =     -2.125347550
     EX+EC           =    -48.846389012
Transforming the Hamiltonian                       ... done (   0.0 sec)
Diagonalizing the Hamiltonian                      ... done (   0.0 sec)
Back transforming the eigenvectors                 ... done (   0.0 sec)
Now organizing SCF variables                       ... done
                      ------------------
                      INITIAL GUESS DONE (   0.7 sec)
                      ------------------
             **** ENERGY FILE WAS UPDATED (icosahedron_nn1.60.en.tmp) ****
Finished Guess after   1.2 sec
Maximum memory used throughout the entire GUESS-calculation: 9.8 MB


           ************************************************************
           *        Program running with 8 parallel MPI-processes     *
           *              working on a common directory               *
           ************************************************************

-------------------------------------------------------------------------------------------
                                      ORCA LEAN-SCF
                              memory conserving SCF solver
-------------------------------------------------------------------------------------------

----------------------------------------D-I-I-S--------------------------------------------
Iteration    Energy (Eh)           Delta-E    RMSDP     MaxDP     DIISErr   Damp  Time(sec)
-------------------------------------------------------------------------------------------
               ***  Starting incremental Fock matrix formation  ***
    1    -296.6515179953115080     0.00e+00  1.05e-01  1.69e+00  2.20e-01  0.850   0.8
Warning: op=0 Small HOMO/LUMO gap (  -0.044) - skipping pre-diagonalization
         Will do a full diagonalization
    2    -296.9119056989542855    -2.60e-01  8.58e-02  1.26e+00  1.56e-01  0.850   0.6
                               ***Turning on AO-DIIS***
    3    -297.0610944137851561    -1.49e-01  3.83e-02  4.63e-01  9.30e-02  0.850   0.8
    4    -297.1478285253658100    -8.67e-02  2.45e-02  2.60e-01  6.71e-02  0.850   0.5
    5    -297.2076414638167421    -5.98e-02  2.00e-02  2.08e-01  5.36e-02  0.850   0.9
    6    -297.2535550579904680    -4.59e-02  1.78e-02  1.87e-01  4.50e-02  0.850   0.7
    7    -297.2908247834166673    -3.73e-02  1.64e-02  1.79e-01  3.84e-02  0.850   0.7
    8    -297.3218967808169850    -3.11e-02  1.52e-02  1.72e-01  3.27e-02  0.850   1.0
    9    -297.3480093937452580    -2.61e-02  1.36e-02  1.59e-01  2.76e-02  0.850   0.8
   10    -297.3699166840264638    -2.19e-02  8.02e-02  9.51e-01  2.31e-02  0.000   0.4
   11    -297.4873962183559684    -1.17e-01  9.78e-03  1.14e-01  3.02e-03  0.000   0.4
                              *** Initializing SOSCF ***
---------------------------------------S-O-S-C-F--------------------------------------
Iteration    Energy (Eh)           Delta-E    RMSDP     MaxDP     MaxGrad    Time(sec)
--------------------------------------------------------------------------------------
   12    -297.4876016422240923    -2.05e-04  7.68e-03  7.15e-02  6.87e-04     0.4
               *** Restarting incremental Fock matrix formation ***
   13    -297.4876955229327109    -9.39e-05  1.46e-02  1.33e-01  2.14e-03     0.5
               *** Scaled step length from 0.816032 to 0.200000 ***
   14    -297.4878864505381557    -1.91e-04  1.46e-01  1.26e+00  1.94e-03     0.5
   15    -297.4889817753385728    -1.10e-03  4.97e-02  5.05e-01  2.68e-03     0.4
   16    -297.4891540136339358    -1.72e-04  1.16e-02  1.26e-01  1.08e-03     0.4
   17    -297.4892203874942993    -6.64e-05  9.82e-03  1.13e-01  5.37e-04     0.7
   18    -297.4892386113287444    -1.82e-05  1.32e-02  1.33e-01  4.70e-04     0.5
   19    -297.4892656711026007    -2.71e-05  4.06e-02  4.05e-01  5.03e-04     0.6
   20    -297.4893375927293278    -7.19e-05  8.99e-02  8.60e-01  1.10e-03     0.4
   21    -297.4893522662629834    -1.47e-05  1.92e-02  2.11e-01  1.78e-03     0.7
   22    -297.4894927492110241    -1.40e-04  1.38e-02  1.36e-01  1.87e-03     0.8
   23    -297.4895635401858840    -7.08e-05  5.49e-02  4.78e-01  1.07e-03     0.4
   24    -297.4896239330490175    -6.04e-05  1.58e-02  1.47e-01  5.47e-04     0.4
   25    -297.4896466349034085    -2.27e-05  1.19e-02  1.26e-01  5.66e-04     0.7
   26    -297.4896426742710105     3.96e-06  5.75e-03  6.09e-02  5.82e-04     0.6
   27    -297.4896588842106553    -1.62e-05  4.82e-03  4.88e-02  1.46e-04     0.4
   28    -297.4896593364969135    -4.52e-07  1.29e-03  1.27e-02  2.03e-04     0.4
   29    -297.4896611921461158    -1.86e-06  3.23e-04  3.46e-03  9.56e-05     0.4
   30    -297.4896608346987819     3.57e-07  6.20e-04  5.35e-03  1.21e-04     0.4
   31    -297.4896615350568823    -7.00e-07  2.40e-04  2.63e-03  1.81e-05     0.6
   32    -297.4896615435664557    -8.51e-09  1.26e-04  1.30e-03  8.01e-06     0.7
                 **** Energy Check signals convergence ****
               *** Restarting incremental Fock matrix formation ***

               *****************************************************
               *                     SUCCESS                       *
               *           SCF CONVERGED AFTER  32 CYCLES          *
               *****************************************************

             **** ENERGY FILE WAS UPDATED (icosahedron_nn1.60.en.tmp) ****

----------------
TOTAL SCF ENERGY
----------------

Total Energy       :       -297.48966154978183 Eh           -8095.10524 eV

Components:
Nuclear Repulsion  :        427.43798158894714 Eh           11631.17880 eV
Electronic Energy  :       -724.92764313872897 Eh          -19726.28403 eV
One Electron Energy:      -1241.03161979748506 Eh          -33770.18722 eV
Two Electron Energy:        516.10397665875610 Eh           14043.90318 eV

Virial components:
Potential Energy   :       -593.36501006484673 Eh          -16146.28279 eV
Kinetic Energy     :        295.87534851506496 Eh            8051.17755 eV
Virial Ratio       :          2.00545605790688

DFT components:
N(Alpha)           :       30.000524189344 electrons
N(Beta)            :       30.000524189344 electrons
N(Total)           :       60.001048378687 electrons
E(X)               :      -47.191439300073 Eh       
E(C)               :       -2.161151163354 Eh       
E(XC)              :      -49.352590463428 Eh       

---------------
SCF CONVERGENCE
---------------

  Last Energy change         ...    8.5096e-09  Tolerance :   1.0000e-08
  Last MAX-Density change    ...    1.2951e-03  Tolerance :   1.0000e-07
  Last RMS-Density change    ...    1.2634e-04  Tolerance :   5.0000e-09
  Last DIIS Error            ...    6.8693e-04  Tolerance :   5.0000e-07
  Last Orbital Gradient      ...    8.0055e-06  Tolerance :   1.0000e-05
  Last Orbital Rotation      ...    1.7465e-04  Tolerance :   1.0000e-05


----------------
ORBITAL ENERGIES
----------------

  NO   OCC          E(Eh)            E(eV) 
   0   2.0000      -6.584781      -179.1810 
   1   2.0000      -6.584724      -179.1794 
   2   2.0000      -6.583682      -179.1511 
   3   2.0000      -6.583680      -179.1510 
   4   2.0000      -6.583678      -179.1510 
   5   2.0000      -6.583677      -179.1510 
   6   2.0000      -6.552936      -178.3145 
   7   2.0000      -6.552663      -178.3070 
   8   2.0000      -6.552658      -178.3069 
   9   2.0000      -6.551945      -178.2875 
  10   2.0000      -6.551941      -178.2874 
  11   2.0000      -6.551555      -178.2769 
  12   2.0000      -0.853545       -23.2261 
  13   2.0000      -0.667018       -18.1505 
  14   2.0000      -0.660016       -17.9600 
  15   2.0000      -0.660016       -17.9599 
  16   2.0000      -0.485345       -13.2069 
  17   2.0000      -0.480696       -13.0804 
  18   2.0000      -0.480694       -13.0803 
  19   2.0000      -0.474703       -12.9173 
  20   2.0000      -0.474702       -12.9173 
  21   2.0000      -0.383846       -10.4450 
  22   2.0000      -0.349322        -9.5055 
  23   2.0000      -0.346545        -9.4300 
  24   2.0000      -0.346544        -9.4299 
  25   2.0000      -0.338769        -9.2184 
  26   2.0000      -0.257874        -7.0171 
  27   2.0000      -0.245073        -6.6688 
  28   2.0000      -0.245071        -6.6687 
  29   2.0000      -0.122059        -3.3214 
  30   0.0000      -0.135728        -3.6934 
  31   0.0000      -0.135727        -3.6933 
  32   0.0000      -0.113073        -3.0769 
  33   0.0000      -0.113073        -3.0769 
  34   0.0000      -0.104042        -2.8311 
  35   0.0000      -0.094491        -2.5712 
  36   0.0000      -0.094488        -2.5711 
  37   0.0000       0.006198         0.1687 
  38   0.0000       0.006909         0.1880 
  39   0.0000       0.006909         0.1880 
  40   0.0000       0.009867         0.2685 
*Only the first 10 virtual orbitals were printed.

                    ********************************
                    * MULLIKEN POPULATION ANALYSIS *
                    ********************************

-----------------------
MULLIKEN ATOMIC CHARGES
-----------------------
   0 B :    0.044953
   1 B :    0.044948
   2 B :   -0.044975
   3 B :   -0.044950
   4 B :   -0.044936
   5 B :    0.044954
   6 B :   -0.044955
   7 B :   -0.044948
   8 B :    0.044964
   9 B :    0.044958
  10 B :    0.044955
  11 B :   -0.044968
Sum of atomic charges:   -0.0000000

--------------------------------
MULLIKEN REDUCED ORBITAL CHARGES
--------------------------------
  0 B s       :     2.484740  s :     2.484740
      pz      :     0.722840  p :     2.384499
      px      :     0.856634
      py      :     0.805026
      dz2     :     0.020713  d :     0.085808
      dxz     :     0.019518
      dyz     :     0.017964
      dx2y2   :     0.012744
      dxy     :     0.014868

  1 B s       :     2.484773  s :     2.484773
      pz      :     0.856622  p :     2.384472
      px      :     0.805018
      py      :     0.722832
      dz2     :     0.012424  d :     0.085807
      dxz     :     0.014867
      dyz     :     0.019518
      dx2y2   :     0.021033
      dxy     :     0.017964

  2 B s       :     2.442712  s :     2.442712
      pz      :     0.849487  p :     2.513680
      px      :     0.764384
      py      :     0.899809
      dz2     :     0.019250  d :     0.088583
      dxz     :     0.018153
      dyz     :     0.015158
      dx2y2   :     0.016917
      dxy     :     0.019106

  3 B s       :     2.442702  s :     2.442702
      pz      :     0.764375  p :     2.513664
      px      :     0.899806
      py      :     0.849483
      dz2     :     0.019587  d :     0.088584
      dxz     :     0.019106
      dyz     :     0.018153
      dx2y2   :     0.016579
      dxy     :     0.015158

  4 B s       :     2.442690  s :     2.442690
      pz      :     0.899801  p :     2.513663
      px      :     0.849483
      py      :     0.764379
      dz2     :     0.015413  d :     0.088583
      dxz     :     0.015158
      dyz     :     0.019106
      dx2y2   :     0.020754
      dxy     :     0.018153

  5 B s       :     2.484726  s :     2.484726
      pz      :     0.805029  p :     2.384513
      px      :     0.722847
      py      :     0.856636
      dz2     :     0.017048  d :     0.085808
      dxz     :     0.017964
      dyz     :     0.014868
      dx2y2   :     0.016409
      dxy     :     0.019519

  6 B s       :     2.442703  s :     2.442703
      pz      :     0.764379  p :     2.513669
      px      :     0.899805
      py      :     0.849485
      dz2     :     0.019587  d :     0.088584
      dxz     :     0.019106
      dyz     :     0.018153
      dx2y2   :     0.016579
      dxy     :     0.015158

  7 B s       :     2.442693  s :     2.442693
      pz      :     0.899802  p :     2.513671
      px      :     0.849485
      py      :     0.764384
      dz2     :     0.015413  d :     0.088583
      dxz     :     0.015158
      dyz     :     0.019106
      dx2y2   :     0.020754
      dxy     :     0.018153

  8 B s       :     2.484724  s :     2.484724
      pz      :     0.805027  p :     2.384504
      px      :     0.722842
      py      :     0.856635
      dz2     :     0.017048  d :     0.085808
      dxz     :     0.017964
      dyz     :     0.014868
      dx2y2   :     0.016409
      dxy     :     0.019518

  9 B s       :     2.484738  s :     2.484738
      pz      :     0.722844  p :     2.384496
      px      :     0.856634
      py      :     0.805019
      dz2     :     0.020713  d :     0.085807
      dxz     :     0.019518
      dyz     :     0.017964
      dx2y2   :     0.012744
      dxy     :     0.014868

 10 B s       :     2.484768  s :     2.484768
      pz      :     0.856622  p :     2.384471
      px      :     0.805011
      py      :     0.722838
      dz2     :     0.012424  d :     0.085807
      dxz     :     0.014867
      dyz     :     0.019518
      dx2y2   :     0.021033
      dxy     :     0.017964

 11 B s       :     2.442706  s :     2.442706
      pz      :     0.849486  p :     2.513679
      px      :     0.764386
      py      :     0.899808
      dz2     :     0.019249  d :     0.088583
      dxz     :     0.018153
      dyz     :     0.015158
      dx2y2   :     0.016917
      dxy     :     0.019106



                     *******************************
                     * LOEWDIN POPULATION ANALYSIS *
                     *******************************

----------------------
LOEWDIN ATOMIC CHARGES
----------------------
   0 B :   -0.059784
   1 B :   -0.059796
   2 B :    0.059783
   3 B :    0.059775
   4 B :    0.059780
   5 B :   -0.059764
   6 B :    0.059776
   7 B :    0.059781
   8 B :   -0.059760
   9 B :   -0.059775
  10 B :   -0.059794
  11 B :    0.059779

-------------------------------
LOEWDIN REDUCED ORBITAL CHARGES
-------------------------------
  0 B s       :     2.578809  s :     2.578809
      pz      :     0.728627  p :     2.250050
      px      :     0.768878
      py      :     0.752545
      dz2     :     0.048856  d :     0.230925
      dxz     :     0.052173
      dyz     :     0.040010
      dx2y2   :     0.042302
      dxy     :     0.047584

  1 B s       :     2.578815  s :     2.578815
      pz      :     0.768872  p :     2.250057
      px      :     0.752547
      py      :     0.728639
      dz2     :     0.040305  d :     0.230924
      dxz     :     0.047583
      dyz     :     0.052172
      dx2y2   :     0.050854
      dxy     :     0.040010

  2 B s       :     2.518968  s :     2.518968
      pz      :     0.738609  p :     2.188832
      px      :     0.661669
      py      :     0.788554
      dz2     :     0.053519  d :     0.232418
      dxz     :     0.038753
      dyz     :     0.047882
      dx2y2   :     0.040647
      dxy     :     0.051616

  3 B s       :     2.518972  s :     2.518972
      pz      :     0.661672  p :     2.188834
      px      :     0.788552
      py      :     0.738610
      dz2     :     0.043716  d :     0.232419
      dxz     :     0.051616
      dyz     :     0.038755
      dx2y2   :     0.050450
      dxy     :     0.047883

  4 B s       :     2.518970  s :     2.518970
      pz      :     0.788550  p :     2.188832
      px      :     0.738608
      py      :     0.661673
      dz2     :     0.044015  d :     0.232419
      dxz     :     0.047881
      dyz     :     0.051616
      dx2y2   :     0.050152
      dxy     :     0.038755

  5 B s       :     2.578801  s :     2.578801
      pz      :     0.752542  p :     2.250037
      px      :     0.728616
      py      :     0.768879
      dz2     :     0.047577  d :     0.230926
      dxz     :     0.040009
      dyz     :     0.047584
      dx2y2   :     0.043582
      dxy     :     0.052174

  6 B s       :     2.518972  s :     2.518972
      pz      :     0.661671  p :     2.188833
      px      :     0.788552
      py      :     0.738610
      dz2     :     0.043716  d :     0.232419
      dxz     :     0.051616
      dyz     :     0.038755
      dx2y2   :     0.050449
      dxy     :     0.047883

  7 B s       :     2.518969  s :     2.518969
      pz      :     0.788551  p :     2.188831
      px      :     0.738609
      py      :     0.661671
      dz2     :     0.044016  d :     0.232419
      dxz     :     0.047881
      dyz     :     0.051616
      dx2y2   :     0.050152
      dxy     :     0.038754

  8 B s       :     2.578801  s :     2.578801
      pz      :     0.752541  p :     2.250034
      px      :     0.728614
      py      :     0.768878
      dz2     :     0.047577  d :     0.230926
      dxz     :     0.040009
      dyz     :     0.047584
      dx2y2   :     0.043582
      dxy     :     0.052173

  9 B s       :     2.578808  s :     2.578808
      pz      :     0.728623  p :     2.250043
      px      :     0.768877
      py      :     0.752543
      dz2     :     0.048855  d :     0.230925
      dxz     :     0.052173
      dyz     :     0.040010
      dx2y2   :     0.042302
      dxy     :     0.047585

 10 B s       :     2.578815  s :     2.578815
      pz      :     0.768871  p :     2.250055
      px      :     0.752545
      py      :     0.728639
      dz2     :     0.040305  d :     0.230924
      dxz     :     0.047583
      dyz     :     0.052172
      dx2y2   :     0.050853
      dxy     :     0.040010

 11 B s       :     2.518968  s :     2.518968
      pz      :     0.738610  p :     2.188835
      px      :     0.661671
      py      :     0.788554
      dz2     :     0.053519  d :     0.232418
      dxz     :     0.038754
      dyz     :     0.047882
      dx2y2   :     0.040647
      dxy     :     0.051617



                      *****************************
                      * MAYER POPULATION ANALYSIS *
                      *****************************

  NA   - Mulliken gross atomic population
  ZA   - Total nuclear charge
  QA   - Mulliken gross atomic charge
  VA   - Mayer's total valence
  BVA  - Mayer's bonded valence
  FA   - Mayer's free valence

  ATOM       NA         ZA         QA         VA         BVA        FA
  0 B      4.9550     5.0000     0.0450     3.8129     3.8129     0.0000
  1 B      4.9551     5.0000     0.0449     3.8128     3.8128    -0.0000
  2 B      5.0450     5.0000    -0.0450     4.9146     4.9146    -0.0000
  3 B      5.0449     5.0000    -0.0449     4.9145     4.9145    -0.0000
  4 B      5.0449     5.0000    -0.0449     4.9145     4.9145     0.0000
  5 B      4.9550     5.0000     0.0450     3.8130     3.8130     0.0000
  6 B      5.0450     5.0000    -0.0450     4.9145     4.9145    -0.0000
  7 B      5.0449     5.0000    -0.0449     4.9146     4.9146    -0.0000
  8 B      4.9550     5.0000     0.0450     3.8130     3.8130     0.0000
  9 B      4.9550     5.0000     0.0450     3.8129     3.8129    -0.0000
 10 B      4.9550     5.0000     0.0450     3.8128     3.8128    -0.0000
 11 B      5.0450     5.0000    -0.0450     4.9146     4.9146    -0.0000

  Mayer bond orders larger than 0.100000
B(  0-B ,  2-B ) :   0.4701 B(  0-B ,  3-B ) :   0.3228 B(  0-B ,  4-B ) :   0.2641 
B(  0-B ,  6-B ) :   0.4701 B(  0-B ,  7-B ) :   0.8232 B(  0-B ,  8-B ) :   0.4829 
B(  0-B ,  9-B ) :   0.2064 B(  0-B , 10-B ) :   0.4829 B(  0-B , 11-B ) :   0.3228 
B(  1-B ,  2-B ) :   0.8231 B(  1-B ,  3-B ) :   0.4700 B(  1-B ,  4-B ) :   0.3228 
B(  1-B ,  5-B ) :   0.4829 B(  1-B ,  6-B ) :   0.3228 B(  1-B ,  7-B ) :   0.4702 
B(  1-B ,  9-B ) :   0.4829 B(  1-B , 10-B ) :   0.2065 B(  1-B , 11-B ) :   0.2641 
B(  2-B ,  3-B ) :   0.3538 B(  2-B ,  4-B ) :   0.7070 B(  2-B ,  5-B ) :   0.3228 
B(  2-B ,  6-B ) :   0.7070 B(  2-B ,  7-B ) :   0.3538 B(  2-B ,  8-B ) :   0.4703 
B(  2-B ,  9-B ) :   0.3228 B(  2-B , 10-B ) :   0.2641 B(  2-B , 11-B ) :   0.1199 
B(  3-B ,  4-B ) :   0.3538 B(  3-B ,  5-B ) :   0.2641 B(  3-B ,  6-B ) :   0.1199 
B(  3-B ,  7-B ) :   0.7070 B(  3-B ,  8-B ) :   0.8232 B(  3-B ,  9-B ) :   0.4701 
[...]
      dz2     :     0.016178  d :     0.068191
      dxz     :     0.015008
      dyz     :     0.014537
      dx2y2   :     0.010614
      dxy     :     0.011854

 10 B s       :     2.843748  s :     2.843748
      pz      :     0.753009  p :     2.118505
      px      :     0.710056
      py      :     0.655441
      dz2     :     0.010499  d :     0.068100
      dxz     :     0.011799
      dyz     :     0.014985
      dx2y2   :     0.016274
      dxy     :     0.014543

 11 B s       :     2.519757  s :     2.519757
      pz      :     0.802426  p :     2.376625
      px      :     0.731917
      py      :     0.842282
      dz2     :     0.015838  d :     0.074027
      dxz     :     0.014733
      dyz     :     0.013661
      dx2y2   :     0.014239
      dxy     :     0.015555



                     *******************************
                     * LOEWDIN POPULATION ANALYSIS *
                     *******************************

----------------------
LOEWDIN ATOMIC CHARGES
----------------------
   0 B :   -0.037057
   1 B :   -0.038250
   2 B :    0.037808
   3 B :    0.037656
   4 B :    0.037511
   5 B :   -0.037603
   6 B :    0.037629
   7 B :    0.037444
   8 B :   -0.037626
   9 B :   -0.037093
  10 B :   -0.038258
  11 B :    0.037840

-------------------------------
LOEWDIN REDUCED ORBITAL CHARGES
-------------------------------
  0 B s       :     2.664727  s :     2.664727
      pz      :     0.725183  p :     2.199161
      px      :     0.738976
      py      :     0.735002
      dz2     :     0.037830  d :     0.173169
      dxz     :     0.041023
      dyz     :     0.029432
      dx2y2   :     0.030507
      dxy     :     0.034376

  1 B s       :     2.666054  s :     2.666054
      pz      :     0.738399  p :     2.199176
      px      :     0.734906
      py      :     0.725872
      dz2     :     0.027311  d :     0.173019
      dxz     :     0.034251
      dyz     :     0.040995
      dx2y2   :     0.041002
      dxy     :     0.029461

  2 B s       :     2.571354  s :     2.571354
      pz      :     0.740546  p :     2.204434
      px      :     0.677293
      py      :     0.786596
      dz2     :     0.042985  d :     0.186404
      dxz     :     0.030099
      dyz     :     0.038801
      dx2y2   :     0.032511
      dxy     :     0.042009

  3 B s       :     2.571539  s :     2.571539
      pz      :     0.677264  p :     2.204389
      px      :     0.786647
      py      :     0.740478
      dz2     :     0.035139  d :     0.186417
      dxz     :     0.042053
      dyz     :     0.030121
      dx2y2   :     0.040212
      dxy     :     0.038892

  4 B s       :     2.571705  s :     2.571705
      pz      :     0.786996  p :     2.204333
      px      :     0.740269
      py      :     0.677068
      dz2     :     0.035029  d :     0.186451
      dxz     :     0.038834
      dyz     :     0.042024
      dx2y2   :     0.040391
      dxy     :     0.030174

  5 B s       :     2.665746  s :     2.665746
      pz      :     0.735116  p :     2.198874
      px      :     0.725658
      py      :     0.738100
      dz2     :     0.037323  d :     0.172984
      dxz     :     0.029405
      dyz     :     0.034245
      dx2y2   :     0.031051
      dxy     :     0.040960

  6 B s       :     2.571544  s :     2.571544
      pz      :     0.676988  p :     2.204365
      px      :     0.787000
      py      :     0.740376
      dz2     :     0.035139  d :     0.186463
      dxz     :     0.042040
      dyz     :     0.030126
      dx2y2   :     0.040256
      dxy     :     0.038903

  7 B s       :     2.571793  s :     2.571793
      pz      :     0.786750  p :     2.204408
      px      :     0.740348
      py      :     0.677310
      dz2     :     0.034999  d :     0.186355
      dxz     :     0.038784
      dyz     :     0.041994
      dx2y2   :     0.040414
      dxy     :     0.030163

  8 B s       :     2.665508  s :     2.665508
      pz      :     0.735144  p :     2.199073
      px      :     0.725504
      py      :     0.738426
      dz2     :     0.037320  d :     0.173045
      dxz     :     0.029423
      dyz     :     0.034259
      dx2y2   :     0.031052
      dxy     :     0.040991

  9 B s       :     2.665132  s :     2.665132
      pz      :     0.725307  p :     2.198913
      px      :     0.738490
      py      :     0.735116
      dz2     :     0.037807  d :     0.173048
      dxz     :     0.041005
      dyz     :     0.029431
      dx2y2   :     0.030466
      dxy     :     0.034339

 10 B s       :     2.666817  s :     2.666817
      pz      :     0.737583  p :     2.198638
      px      :     0.734860
      py      :     0.726194
      dz2     :     0.027238  d :     0.172804
      dxz     :     0.034189
      dyz     :     0.040943
      dx2y2   :     0.040993
      dxy     :     0.029440

 11 B s       :     2.571268  s :     2.571268
      pz      :     0.740385  p :     2.204343
      px      :     0.676818
      py      :     0.787140
      dz2     :     0.043013  d :     0.186549
      dxz     :     0.030123
      dyz     :     0.038854
      dx2y2   :     0.032537
      dxy     :     0.042022



                      *****************************
                      * MAYER POPULATION ANALYSIS *
                      *****************************

  NA   - Mulliken gross atomic population
  ZA   - Total nuclear charge
  QA   - Mulliken gross atomic charge
  VA   - Mayer's total valence
  BVA  - Mayer's bonded valence
  FA   - Mayer's free valence

  ATOM       NA         ZA         QA         VA         BVA        FA
  0 B      5.0272     5.0000    -0.0272     3.7719     3.7719    -0.0000
  1 B      5.0280     5.0000    -0.0280     3.7625     3.7625    -0.0000
  2 B      4.9723     5.0000     0.0277     4.3393     4.3393    -0.0000
  3 B      4.9718     5.0000     0.0282     4.3367     4.3367    -0.0000
  4 B      4.9709     5.0000     0.0291     4.3336     4.3336     0.0000
  5 B      5.0289     5.0000    -0.0289     3.7685     3.7685     0.0000
  6 B      4.9711     5.0000     0.0289     4.3352     4.3352     0.0000
  7 B      4.9722     5.0000     0.0278     4.3361     4.3361    -0.0000
  8 B      5.0282     5.0000    -0.0282     3.7679     3.7679     0.0000
  9 B      5.0286     5.0000    -0.0286     3.7727     3.7727    -0.0000
 10 B      5.0304     5.0000    -0.0304     3.7640     3.7640     0.0000
 11 B      4.9704     5.0000     0.0296     4.3352     4.3352    -0.0000

  Mayer bond orders larger than 0.100000
B(  0-B ,  1-B ) :   0.2448 B(  0-B ,  2-B ) :   0.5558 B(  0-B ,  3-B ) :   0.1606 
B(  0-B ,  4-B ) :   0.1766 B(  0-B ,  5-B ) :   0.2458 B(  0-B ,  6-B ) :   0.5519 
B(  0-B ,  7-B ) :   0.8430 B(  0-B ,  8-B ) :   0.2606 B(  0-B ,  9-B ) :   0.3112 
B(  0-B , 10-B ) :   0.2616 B(  0-B , 11-B ) :   0.1600 B(  1-B ,  2-B ) :   0.8366 
B(  1-B ,  3-B ) :   0.5520 B(  1-B ,  4-B ) :   0.1604 B(  1-B ,  5-B ) :   0.2621 
B(  1-B ,  6-B ) :   0.1605 B(  1-B ,  7-B ) :   0.5490 B(  1-B ,  8-B ) :   0.2441 
B(  1-B ,  9-B ) :   0.2617 B(  1-B , 10-B ) :   0.3156 B(  1-B , 11-B ) :   0.1757 
B(  2-B ,  3-B ) :   0.1465 B(  2-B ,  4-B ) :   0.7062 B(  2-B ,  5-B ) :   0.1607 
B(  2-B ,  6-B ) :   0.7057 B(  2-B ,  7-B ) :   0.1467 B(  2-B ,  8-B ) :   0.5551 
B(  2-B ,  9-B ) :   0.1606 B(  2-B , 10-B ) :   0.1763 B(  2-B , 11-B ) :   0.1892 
B(  3-B ,  4-B ) :   0.1463 B(  3-B ,  5-B ) :   0.1765 B(  3-B ,  6-B ) :   0.1891 
B(  3-B ,  7-B ) :   0.7070 B(  3-B ,  8-B ) :   0.8397 B(  3-B ,  9-B ) :   0.5527 
B(  3-B , 10-B ) :   0.1606 B(  3-B , 11-B ) :   0.7057 B(  4-B ,  5-B ) :   0.1603 
B(  4-B ,  6-B ) :   0.7076 B(  4-B ,  7-B ) :   0.1890 B(  4-B ,  8-B ) :   0.5495 
B(  4-B ,  9-B ) :   0.8427 B(  4-B , 10-B ) :   0.5491 B(  4-B , 11-B ) :   0.1458 
B(  5-B ,  6-B ) :   0.8405 B(  5-B ,  7-B ) :   0.5495 B(  5-B ,  8-B ) :   0.3133 
B(  5-B ,  9-B ) :   0.2609 B(  5-B , 10-B ) :   0.2441 B(  5-B , 11-B ) :   0.5548 
B(  6-B ,  7-B ) :   0.1464 B(  6-B ,  8-B ) :   0.1763 B(  6-B ,  9-B ) :   0.1602 
B(  6-B , 10-B ) :   0.5512 B(  6-B , 11-B ) :   0.1457 B(  7-B ,  8-B ) :   0.1610 
B(  7-B ,  9-B ) :   0.1771 B(  7-B , 10-B ) :   0.1608 B(  7-B , 11-B ) :   0.7066 
B(  8-B ,  9-B ) :   0.2458 B(  8-B , 10-B ) :   0.2626 B(  8-B , 11-B ) :   0.1598 
B(  9-B , 10-B ) :   0.2450 B(  9-B , 11-B ) :   0.5549 B( 10-B , 11-B ) :   0.8371 


-------
TIMINGS
-------

Total SCF time: 0 days 0 hours 0 min 2 sec 

Total time                  ....       2.599 sec
Sum of individual times     ....       2.220 sec  ( 85.4%)

SCF preparation             ....       0.607 sec  ( 23.3%)
Fock matrix formation       ....       1.258 sec  ( 48.4%)
  Startup                   ....       0.007 sec  (  0.5% of F)
  Split-RI-J                ....       0.501 sec  ( 39.9% of F)
  XC integration            ....       0.981 sec  ( 78.0% of F)
    Basis function eval.    ....       0.241 sec  ( 24.6% of XC)
    Density eval.           ....       0.197 sec  ( 20.1% of XC)
    XC-Functional eval.     ....       0.026 sec  (  2.7% of XC)
    XC-Potential eval.      ....       0.267 sec  ( 27.2% of XC)
Diagonalization             ....       0.000 sec  (  0.0%)
Density matrix formation    ....       0.020 sec  (  0.8%)
Total Energy calculation    ....       0.015 sec  (  0.6%)
Population analysis         ....       0.113 sec  (  4.3%)
Orbital Transformation      ....       0.018 sec  (  0.7%)
Orbital Orthonormalization  ....       0.000 sec  (  0.0%)
DIIS solution               ....       0.066 sec  (  2.5%)
SOSCF solution              ....       0.123 sec  (  4.7%)
Finished LeanSCF after   2.7 sec

Maximum memory used throughout the entire LEANSCF-calculation: 10.7 MB


-------------------------------------------------------------------------------
                          DFT DISPERSION CORRECTION                            
                                                                               
                              DFTD3 V3.1  Rev 1                                
                          USING Becke-Johnson damping                          
-------------------------------------------------------------------------------
The BP86 functional is recognized
Active option DFTDOPT                   ...         4   

molecular C6(AA) [au] = 4036.536165 


            DFT-D V3
 parameters
 s6 scaling factor         :     1.0000 
 a1 scaling factor         :     0.3946 
 s8 scaling factor         :     3.2822 
 a2 scaling factor         :     4.8516 
 ad hoc parameters k1-k3   :    16.0000     1.3333    -4.0000 

 Edisp/kcal,au: -23.926214015536  -0.038128844985 
 E6   /kcal   :  -6.813056301 
 E8   /kcal   : -17.113157715 
 % E8         :  71.524720559 

-------------------------   ----------------
Dispersion correction           -0.038128845
-------------------------   ----------------


-------------------------   --------------------
FINAL SINGLE POINT ENERGY      -297.635007582716
-------------------------   --------------------

                                *** OPTIMIZATION RUN DONE ***



           ************************************************************
           *        Program running with 8 parallel MPI-processes     *
           *              working on a common directory               *
           ************************************************************

------------------------------------------------------------------------------
                              ORCA PROPERTY CALCULATIONS
------------------------------------------------------------------------------

GBWName                                 ... icosahedron_nn1.60.gbw
Number of atoms                         ...     12
Number of basis functions               ...    168
Max core memory                         ...   2500 MB

Electric properties:
Dipole moment                           ... YES
Quadrupole moment                       ...  NO
Static polarizability (Dipole/Dipole)   ...  NO
Static polarizability (Dipole/Quad.)    ...  NO
Static polarizability (Quad./Quad.)     ...  NO
Static polarizability (Velocity)        ...  NO
Static hyperpolarizability              ...  NO

Atomic electric properties:
Dipole moment                           ...  NO
Quadrupole moment                       ...  NO
Static polarizability                   ...  NO

Choice of electric origin               ... Center of mass
Position of electric origin             ...     0.000000     0.000000     0.000000

General magnetic properties:
Magnetizability                         ...  NO

EPR properties:
g-Tensor (aka g-matrix)                 ...  NO
Zero-Field splitting spin-orbit         ...  NO
Zero-field splitting spin-spin          ...  NO
Hyperfine couplings                     ...  NO (   0 nuclei)
Quadrupole couplings                    ...  NO (   0 nuclei)
Contact density                         ...  NO (   0 nuclei)

NMR properties:
Chemical shifts                         ...  NO (   0 nuclei)
Spin-rotation constants                 ...  NO (   0 nuclei)
Spin-spin couplings                     ...  NO (   0 nuclei,    0 pairs)

Choice of magnetic origin               ... GIAO
Position of magnetic origin             ...     0.000000     0.000000     0.000000

Properties with geometric perturbations:
SCF Hessian                             ...  NO
IR spectrum                             ...  NO
VCD spectrum                            ...  NO
X-ray spectroscopy properties:
SCF XES/XAS/RIXS spectra                ...  NO

SCF SOC stabilization energy            ...  NO
Diagonal Born-Oppenheimer correction    ...  NO

-------------
DIPOLE MOMENT
-------------

Method             : SCF
Type of density    : Electron Density
Multiplicity       :   1
Irrep              :   0
Energy             :  -297.5968787377310605 Eh
Basis              : AO
                                X                 Y                 Z
Electronic contribution:     -0.001575223      -0.001997661      -0.000342643
Nuclear contribution   :      0.000000000       0.000000000       0.000000000
                        -----------------------------------------
Total Dipole Moment    :     -0.001575223      -0.001997661      -0.000342643
                        -----------------------------------------
Magnitude (a.u.)       :      0.002566979
Magnitude (Debye)      :      0.006524742



--------------------
Rotational spectrum 
--------------------
 
Rotational constants in cm-1:             0.074525             0.074486             0.070821 
Rotational constants in MHz :          2234.199457          2233.026426          2123.172043 

Dipole components along the rotational axes: 
x,y,z [a.u.] :    -0.002463    -0.000723     0.000038 
x,y,z [Debye]:    -0.006260    -0.001837     0.000097 

 

Dipole moment calculation done in   0.0 sec 

Maximum memory used throughout the entire PROP-calculation: 8.4 MB

--------------------------------
SUGGESTED CITATIONS FOR THIS RUN
--------------------------------

Below you find a list of papers that are relevant to this ORCA run
We neither can nor want to force you to cite these papers, but we appreciate if you do
You receive ORCA, which is the product of decades of hard work by many enthusiastic individuals, for free
The only thing we kindly ask in return is that you cite our papers,
We deeply appreciate it, if you show your appreciation for ORCA by not just citing the generic ORCA reference.

Please note that relegating all ORCA citations to the supporting information does *not* help us.
SI sections are not indexed - citations you put there will not count into any citation statistics
But we need these citations in order to attract the funding resources that allow us to do what we are doing

Therefore, if you are a happy ORCA user, please consider citing a few of the papers listed below in the main body of your paper

In addition to the list printed below, the program has created the file icosahedron_nn1.60.bibtex that contains the list in bibtex format
You can import this file easily into all common literature databanks and citation aid programs

It goes without saying that in many instances, there are alternative algorithms to achieve similar
results as the ones you have gotten from ORCA. It is, of course, also the case that in some instances
ORCA just re-implements algorithms worked out by others. We are fully aware of that and we are also
fully appreciative of our colleagues work. Hence this citation list should not be read as indicating
that the listed papers, which are focused on our own work, are the only ones worth citing. It simply
meant to make it easier for users to cite ORCA specific papers. It is not a substitute for doing your
own literature research and citing the relevant literature in a scientifically appropriate manner.

List of essential papers. We consider these as the minimum necessary citations

  1. Neese, F.
     Software update: the ORCA program system, version 6.0
     WIRES Comput. Molec. Sci. 2025 15(1), e70019
     doi.org/10.1002/wcms.70019

List of papers to cite with high priority. The work reported in these papers was absolutely
necessary for this run to complete.
Our perspective: the developers of density functionals and basis sets usually get cited in chemistry papers
Good! But without the algorithms to do something with them, the functionals or basis sets would not do anything.
Hence, in our opinion, the algorithm design and method developments papers are equally worthy of getting cited

  1. Neese, F.
     An improvement of the resolution of the identity approximation for the formation of the Coulomb matrix
     J. Comp. Chem. 2003 24(14), 1740-1747
     doi.org/10.1002/jcc.10318
  2. Grimme, S.; Antony, J.; Ehrlich, S.; Krieg, H.
     A consistent and accurate ab initio parametrization of density functional dispersion correction (DFT-D) for the 94 elements H-Pu
     J. Chem. Phys. 2010 132 , 154104
     doi.org/10.1063/1.3382344
  3. Grimme, S.; Ehrlich, S.; Goerigk, L.
     Effect of the damping function in dispersion corrected density functional theory
     J. Comput. Chem. 2011 32(7), 1456-1465
     doi.org/10.1002/jcc.21759
  4. Neese, F.
     The SHARK Integral Generation and Digestion System
     J. Comp. Chem. 2022 44(3), 381
     doi.org/10.1002/jcc.26942

List of suggested additional citations. These are papers that are important in the 'surrounding' of 
of this run, or papers that preceded the highly important papers. If you like your results we are grateful for a citation.

  1. Neese, F.
     The ORCA program system
     WIRES Comput. Molec. Sci. 2012 2(1), 73-78
     doi.org/10.1002/wcms.81
  2. Neese, F.
     Software update: the ORCA program system, version 4.0
     WIRES Comput. Molec. Sci. 2018 8(1), 1-6
     doi.org/10.1002/wcms.1327
  3. Neese, F.; Wennmohs, F.; Becker, U.; Riplinger, C.
     The ORCA quantum chemistry program package
     J. Chem. Phys. 2020 152(22), 224108
     doi.org/10.1063/5.0004608
  4. Neese, F.
     Software update: The ORCA program system—Version 5.0
     WIRES Comput. Molec. Sci. 2022 12(1), e1606
     doi.org/10.1002/wcms.1606

List of optional additional citations

  1. Neese, F.
     Approximate second-order SCF convergence for spin unrestricted wavefunctions
     Chem. Phys. Lett. 2000 325(1-3), 93-98
     doi.org/10.1016/s0009-2614(00)00662-x

Timings for individual modules:

Sum of individual times          ...      138.184 sec (=   2.303 min)
Startup calculation              ...       22.252 sec (=   0.371 min)  16.1 %
SCF iterations                   ...       88.558 sec (=   1.476 min)  64.1 %
Property calculations            ...        0.891 sec (=   0.015 min)   0.6 %
SCF Gradient evaluation          ...       25.900 sec (=   0.432 min)  18.7 %
Geometry relaxation              ...        0.583 sec (=   0.010 min)   0.4 %
                             ****ORCA TERMINATED NORMALLY****
TOTAL RUN TIME: 0 days 0 hours 2 minutes 28 seconds 125 msec
