
                                 *****************
                                 * O   R   C   A *
                                 *****************

                                            #,                                       
                                            ###                                      
                                            ####                                     
                                            #####                                    
                                            ######                                   
                                           ########,                                 
                                     ,,################,,,,,                         
                               ,,#################################,,                 
                          ,,##########################################,,             
                       ,#########################################, ''#####,          
                    ,#############################################,,   '####,        
                  ,##################################################,,,,####,       
                ,###########''''           ''''###############################       
              ,#####''   ,,,,##########,,,,          '''####'''          '####       
            ,##' ,,,,###########################,,,                        '##       
           ' ,,###''''                  '''############,,,                           
         ,,##''                                '''############,,,,        ,,,,,,###''
      ,#''                                            '''#######################'''  
     '                                                          ''''####''''         
             ,#######,   #######,   ,#######,      ##                                
            ,#'     '#,  ##    ##  ,#'     '#,    #''#        ,####,    ,#,          
            ##       ##  ##   ,#'  ##            #'  '#       #'       ,# #          
            ##       ##  #######   ##           ,######,      #####,      #          
            '#,     ,#'  ##    ##  '#,     ,#' ,#      #,     #,   #      #          
             '#######'   ##     ##  '#######'  #'      '#     '####' #    #          



                #########################################################
                #                        -***-                          #
                #          Department of theory and spectroscopy        #
                #                                                       #
                #                      Frank Neese                      #
                #                                                       #
                #     Directorship, Architecture, Infrastructure        #
                #                    SHARK, DRIVERS                     #
                #        Core code/Algorithms in most modules           #
                #                                                       #
                #        Max Planck Institute fuer Kohlenforschung      #
                #                Kaiser Wilhelm Platz 1                 #
                #                 D-45470 Muelheim/Ruhr                 #
                #                      Germany                          #
                #                                                       #
                #                  All rights reserved                  #
                #                        -***-                          #
                #########################################################


                         Program Version 6.1.1  -  RELEASE   -
                                (GIT: $487d211c$)
                          ($2025-11-21 10:33:24 +0100$)
                                                                         
                                  - NO-DMRG VERSION -                    
                                                                         


 With contributions from (in alphabetic order):
[Max-Planck-Institut fuer Kohlenforschung]                               
  Daniel Aravena         : Magnetic Suceptibility                        
  Michael Atanasov       : Ab Initio Ligand Field Theory (pilot matlab implementation)
  Alexander A. Auer      : GIAO ZORA, VPT2 properties, NMR spectrum      
  Ute Becker             : All parallelization in ORCA, NUMFREQ, NUMCALC 
  Giovanni Bistoni       : ED, misc. LED, open-shell LED, HFLD           
  Dmytro Bykov           : pre 5.0 version of the SCF Hessian            
  Marcos Casanova-Páez   : Triplet and SCS-CIS(D). UHF-(DLPNO)-IP/EA/STEOM-CCSD. UHF-CVS-IP/STEOM-CCSD   
  Vijay G. Chilkuri      : MRCI spin determinant printing, contributions to CSF-ICE 
  Pauline Colinet        : FMM embedding                                 
  Dipayan Datta          : RHF DLPNO-CCSD density                        
  Achintya Kumar Dutta   : EOM-CC, STEOM-CC                              
  Nicolas Foglia         : Exact transition moments, OPA infrastructure, MCD improvements    
  Dmitry Ganyushin       : Spin-Orbit,Spin-Spin,Magnetic field MRCI      
  Miquel Garcia-Rates    : C-PCM and meta-GGA Hessian, CCSD/C-PCM, Gaussian charge scheme 
  Tiago L. C. Gouveia    : GS-ROHF, GS-ROCIS                             
  Yang Guo               : DLPNO-NEVPT2, F12-NEVPT2, CIM, IAO-localization        
  Andreas Hansen         : Spin unrestricted coupled pair/coupled cluster methods 
  Ingolf Harden          : AUTO-CI MPn and infrastructure                
  Benjamin Helmich-Paris : MC-RPA, TRAH-(SCF,CASSCF), AVAS, COSX integrals, SCF dyn. polar., MC-PDFT, srDFT 
  Lee Huntington         : MR-EOM, pCC                                   
  Robert Izsak           : Overlap fitted RIJCOSX, COSX-SCS-MP3, EOM     
  Riya Kayal             : Wick's Theorem for AUTO-CI, AUTO-CI UHF-CCSDT 
  Emily Kempfer          : AUTO-CI RHF CISDT and CCSDT, approximate NEVPT4
  Christian Kollmar      : KDIIS, OOCD, Brueckner-CCSD(T), CCSD density, CASPT2, CASPT2-K, improved NEVPT2 
  Axel Koslowski         : Symmetry handling                             
  Simone Kossmann        : meta-GGA functionals, TD-DFT gradient, OOMP2, (MP2 Hessian; deprecated post 5.0) 
  Lucas Lang             : DCDCAS, Hyperfine gauge corrections, ICE-SOC+SSC
  Marvin Lechner         : AUTO-CI (C++ implementation), FIC-MRCC        
  Spencer Leger          : CASSCF response                               
  Dagmar Lenk            : GEPOL surface, SMD, ORCA-2-JSON               
  Dimitrios Liakos       : Extrapolation schemes; Compound Job, Property file
  Dimitrios Manganas     : Further ROCIS development; embedding schemes. LFT, Crystal Embedding 
  Dimitrios Pantazis     : SARC Basis sets                               
  Anastasios Papadopoulos: AUTO-CI, single reference methods and gradients 
  Taras Petrenko         : pre 6.0 DFT Hessian and TD-DFT gradient,  ECA, NRVS 
  Petra Pikulova         : Analytic Raman intensities                    
  Peter Pinski           : DLPNO-MP2, DLPNO-MP2 Gradient                 
  Shashank Vittal Rao    : ES-AILFT, MagRelax                            
  Christoph Reimann      : Effective Core Potentials                     
  Marius Retegan         : Local ZFS, SOC                                
  Christoph Riplinger    : Optimizer, TS searches, QM/MM, DLPNO-CCSD(T), (RO)-DLPNO pert. Triples 
  Michael Roemelt        : Original ROCIS implementation, recursive CI coupling coefficients
  Masaaki Saitow         : Open-shell DLPNO-CCSD energy and density      
  Barbara Sandhoefer     : DKH picture change effects                    
  Yorick L. A. Schmerwitz: GMF and freeze-and-release deltaSCF, NEB S-IDPP initial path                    
  Kantharuban Sivalingam : CASSCF convergence/infrastructure, NEVPT2, NEVPT3, NEVPT4(SD), FIC-MRCI and CEPA variants
  Bernardo de Souza      : ESD, SOC TD-DFT                               
  Georgi L. Stoychev     : AutoAux, RI-MP2 NMR, DLPNO-MP2 response, X2C  
  Van Anh Tran           : RI-MP2 g-tensors                              
  Willem Van den Heuvel  : Paramagnetic NMR                              
  Zikuan Wang            : NOTCH, Electric field optimization            
  Frank Wennmohs         : Technical directorship and infrastructure     
  Hang Xu                : AUTO-CI-Response properties                   
                                                                         
[FACCTs GmbH]                                                            
  Markus Bursch, Nicolas Foglia, Miquel Garcia-Rates, Ingolf Harden, Hagen Neugebauer, Anastasios Papadopoulos, 
  Christoph Riplinger, Bernardo de Souza, Georgi L. Stoychev                                                    
                                                                 
  APM, various basis sets, CI-OPT, improved COSX, DLPNO-Multilevel,           
  DOCKER, DRACO, updates on ESD, Fragmentator, GOAT, IRC, LR-CPCM, L-BFGS, MBIS, meta-GGA TD-DFT gradient, ML-optimized integration grids, 
  MM, NACMEs, nearIR, NEB, NEB-TS, NL-DFT gradient (VV10), 2- and 3-layer-ONIOM, interface openCOSMO-RS, QMMM,   
  Crystal-QMMM, RESP, rigid body optimization, SF, symmetry and pop. for TD-DFT, various functionals, SOLVATOR                                   
                                                                         
[Other institutions]                                                     
  V. Asgeirsson          : NEB                                           
  Christoph Bannwarth    : sTDA-DFT, sTD-DFT, PBEh-3c, B97-3c, D3        
  Giovanni Bistoni       : ETS/NOCV, ADLD/ADEX, COVALED                  
  Martin Brehm           : Molecular dynamics                            
  Ronald Cardenas        : ETS/NOCV                                      
  Martina Colucci        : COVALED                                       
  Sebastian Ehlert       : rSCAN, r2SCAN, r2SCAN-3c, D4, dhf basis sets  
  Marvin Friede          : D4 for Fr, Ra, Ac-Lr                          
  Lars Goerigk           : TD-DFT with DH, B97 family of functionals     
  Stefan Grimme          : VdW corrections, initial TS optimization, DFT functionals, gCP, sTDA/sTD-DF 
  Waldemar Hujo          : DFT-NL                                        
  H. Jonsson             : NEB                                           
  Holger Kruse           : gCP                                           
  Marcel Mueller         : wB97X-3c, vDZP basis set                      
  Hagen Neugebauer       : wr2SCAN, Native XTB                           
  Gianluca Regni         : ADLD/ADEX                                     
  Tobias Risthaus        : pre 6.0 range-separated hybrid DFT and stability analysis
  Lukas Wittmann         : regularized MP2, r2SCAN double-hybrids, wr2SCAN        
                                                                         
We gratefully acknowledge several colleagues who have allowed us to      
interface, adapt or use parts of their codes:                            
  Ed Valeev, F. Pavosevic, A. Kumar             : LibInt (2-el integral package), F12 methods 
  Garnet Chan, S. Sharma, J. Yang, R. Olivares  : DMRG                   
  Ulf Ekstrom                                   : XCFun DFT Library      
  Mihaly Kallay                                 : mrcc  (arbitrary order and MRCC methods)
  Frank Weinhold                                : gennbo (NPA and NBO analysis)           
  Simon Mueller                                 : openCOSMO-RS                            
  Christopher J. Cramer and Donald G. Truhlar   : smd solvation model                     
  S Lehtola, MJT Oliveira, MAL Marques          : LibXC Library                           
  Liviu Ungur et al                             : ANISO software                          


 Your calculation uses the libint2 library for the computation of 2-el integrals
 For citations please refer to: http://libint.valeyev.net

 Your ORCA version has been built with support for libXC version: 7.0.0
 For citations please refer to: https://libxc.gitlab.io

 This ORCA versions uses:
   CBLAS   interface :  Fast vector & matrix operations
   LAPACKE interface :  Fast linear algebra routines
   SCALAPACK package :  Parallel linear algebra routines
   Shared memory     :  Shared parallel matrices
   BLAS/LAPACK       :  OpenBLAS 0.3.29  USE64BITINT DYNAMIC_ARCH NO_AFFINITY Zen SINGLE_THREADED
        Core in use  :  Zen
   Copyright (c) 2011-2014, The OpenBLAS Project


  ***********************************
  * Starting time: Thu Apr 23 15:32:25 2026
  * Host name:     vmi3233575
  * Process ID:    1306221
  * Working dir.:  /root/b12_scan/jobs/hex_antiprism_nn3.00
  ***********************************

NOTE: MaxCore=2500 MB was set to SCF,MP2,MDCI,CIPSI,MRCI,RASCI and CIS
      => If you want to overwrite this, your respective input block should be placed after the MaxCore statement
Your calculation utilizes the atom-pairwise dispersion correction
with the Becke-Johnson damping scheme (D3BJ)


================================================================================

----- Orbital basis set information -----
Your calculation utilizes the basis: def2-SVP
   F. Weigend and R. Ahlrichs, Phys. Chem. Chem. Phys. 7, 3297 (2005).

----- AuxJ basis set information -----
Your calculation utilizes the auxiliary basis: def2/J
   H-Rn: F. Weigend, Phys. Chem. Chem. Phys. 8, 1057 (2006).
   Fr-Lr: K. Eichkorn, F. Weigend, O. Treutler, R. Ahlrichs; Theor. Chem. Acc. 97, 119 (1997).

================================================================================
                                        WARNINGS
                       Please study these warnings very carefully!
================================================================================


WARNING: Geometry Optimization
  ===> : Switching off AutoStart
         For restart on a previous wavefunction, please use MOREAD

================================================================================
                                       INPUT FILE
================================================================================
NAME = hex_antiprism_nn3.00.inp
|  1> ! BP86 def2-SVP def2/J RI Opt TightSCF D3BJ
|  2> ! SlowConv
|  3> 
|  4> %pal nprocs 8 end
|  5> %maxcore 2500
|  6> 
|  7> %geom
|  8>   MaxIter 300
|  9> end
| 10> 
| 11> * xyz 0 1
| 12> B      3.14840419     -0.00000000      1.25936168
| 13> B      1.57420209      2.72659801      1.25936168
| 14> B     -1.57420209      2.72659801      1.25936168
| 15> B     -3.14840419      0.00000000      1.25936168
| 16> B     -1.57420209     -2.72659801      1.25936168
| 17> B      1.57420209     -2.72659801      1.25936168
| 18> B      2.72659801      1.57420209     -1.25936168
| 19> B      0.00000000      3.14840419     -1.25936168
| 20> B     -2.72659801      1.57420209     -1.25936168
| 21> B     -2.72659801     -1.57420209     -1.25936168
| 22> B     -0.00000000     -3.14840419     -1.25936168
| 23> B      2.72659801     -1.57420209     -1.25936168
| 24> *
| 25> 
| 26>                          ****END OF INPUT****
================================================================================

                       *****************************
                       * Geometry Optimization Run *
                       *****************************

Geometry optimization settings:
Update method            Update   .... BFGS
Choice of coordinates    CoordSys .... (2022) Redundant Internals
Initial Hessian          InHess   .... Almloef's Model
Max. no of cycles        MaxIter  .... 300

Convergence Tolerances:
Energy Change            TolE     ....  5.0000e-06 Eh
Max. Gradient            TolMAXG  ....  3.0000e-04 Eh/bohr
RMS Gradient             TolRMSG  ....  1.0000e-04 Eh/bohr
Max. Displacement        TolMAXD  ....  4.0000e-03 bohr
RMS Displacement         TolRMSD  ....  2.0000e-03 bohr
Strict Convergence                .... False

------------------------------------------------------------------------------
                        ORCA OPTIMIZATION COORDINATE SETUP
------------------------------------------------------------------------------

The optimization will be done in redundant internal coordinates (2022)
Making redundant internal coordinates   ...  (2022 redundants) done
Evaluating the initial hessian          ...  (Almloef) done
Evaluating the coordinates              ...  done
Calculating the B-matrix                .... done
Calculating the G-matrix                .... done
The number of degrees of freedom        ....  240

    -----------------------------------------------------------------
                    Redundant Internal Coordinates


    -----------------------------------------------------------------
         Definition                    Initial Value    Approx d2E/dq
    -----------------------------------------------------------------
      1. B(B   1,B   0)                  3.1484         0.010000   
      2. B(B   2,B   1)                  3.1484         0.010000   
      3. B(B   3,B   2)                  3.1484         0.010000   
      4. B(B   4,B   3)                  3.1484         0.010000   
      5. B(B   5,B   0)                  3.1484         0.010000   
      6. B(B   5,B   4)                  3.1484         0.010000   
      7. B(B   6,B   1)                  3.0000         0.010000   
      8. B(B   6,B   0)                  3.0000         0.010000   
      9. B(B   7,B   6)                  3.1484         0.010000   
     10. B(B   7,B   1)                  3.0000         0.010000   
     11. B(B   7,B   2)                  3.0000         0.010000   
     12. B(B   8,B   3)                  3.0000         0.010000   
     13. B(B   8,B   7)                  3.1484         0.010000   
     14. B(B   8,B   2)                  3.0000         0.010000   
     15. B(B   9,B   8)                  3.1484         0.010000   
     16. B(B   9,B   3)                  3.0000         0.010000   
     17. B(B   9,B   4)                  3.0000         0.010000   
     18. B(B  10,B   5)                  3.0000         0.010000   
     19. B(B  10,B   9)                  3.1484         0.010000   
     20. B(B  10,B   4)                  3.0000         0.010000   
     21. B(B  11,B   6)                  3.1484         0.010000   
     22. B(B  11,B   5)                  3.0000         0.010000   
     23. B(B  11,B  10)                  3.1484         0.010000   
     24. B(B  11,B   0)                  3.0000         0.010000   
     25. A(B   1,B   0,B   5)          120.0000         0.111168   
     26. A(B   5,B   0,B  11)           58.3497         0.114079   
     27. A(B   5,B   0,B   6)          112.5899         0.114079   
     28. A(B   6,B   0,B  11)           63.3007         0.117373   
     29. A(B   1,B   0,B  11)          112.5899         0.114079   
     30. A(B   1,B   0,B   6)           58.3497         0.114079   
     31. A(B   0,B   1,B   6)           58.3497         0.114079   
     32. A(B   0,B   1,B   7)          112.5899         0.114079   
     33. A(B   0,B   1,B   2)          120.0000         0.111168   
     34. A(B   2,B   1,B   7)           58.3497         0.114079   
     35. A(B   2,B   1,B   6)          112.5899         0.114079   
     36. A(B   6,B   1,B   7)           63.3007         0.117373   
     37. A(B   1,B   2,B   8)          112.5899         0.114079   
     38. A(B   3,B   2,B   7)          112.5899         0.114079   
     39. A(B   7,B   2,B   8)           63.3007         0.117373   
     40. A(B   3,B   2,B   8)           58.3497         0.114079   
     41. A(B   1,B   2,B   3)          120.0000         0.111168   
     42. A(B   1,B   2,B   7)           58.3497         0.114079   
     43. A(B   8,B   3,B   9)           63.3007         0.117373   
     44. A(B   2,B   3,B   8)           58.3497         0.114079   
     45. A(B   4,B   3,B   9)           58.3497         0.114079   
     46. A(B   2,B   3,B   4)          120.0000         0.111168   
     47. A(B   4,B   3,B   8)          112.5899         0.114079   
     48. A(B   2,B   3,B   9)          112.5899         0.114079   
     49. A(B   9,B   4,B  10)           63.3007         0.117373   
     50. A(B   3,B   4,B   5)          120.0000         0.111168   
     51. A(B   5,B   4,B  10)           58.3497         0.114079   
     52. A(B   3,B   4,B   9)           58.3497         0.114079   
     53. A(B   3,B   4,B  10)          112.5899         0.114079   
     54. A(B   5,B   4,B   9)          112.5899         0.114079   
     55. A(B  10,B   5,B  11)           63.3007         0.117373   
     56. A(B   0,B   5,B   4)          120.0000         0.111168   
     57. A(B   0,B   5,B  11)           58.3497         0.114079   
     58. A(B   0,B   5,B  10)          112.5899         0.114079   
     59. A(B   4,B   5,B  11)          112.5899         0.114079   
     60. A(B   4,B   5,B  10)           58.3497         0.114079   
     61. A(B   1,B   6,B   7)           58.3497         0.114079   
     62. A(B   7,B   6,B  11)          120.0000         0.111168   
     63. A(B   0,B   6,B   7)          112.5899         0.114079   
     64. A(B   1,B   6,B  11)          112.5899         0.114079   
     65. A(B   0,B   6,B  11)           58.3497         0.114079   
     66. A(B   0,B   6,B   1)           63.3007         0.117373   
     67. A(B   1,B   7,B   2)           63.3007         0.117373   
     68. A(B   1,B   7,B   6)           58.3497         0.114079   
     69. A(B   2,B   7,B   8)           58.3497         0.114079   
     70. A(B   6,B   7,B   8)          120.0000         0.111168   
     71. A(B   1,B   7,B   8)          112.5899         0.114079   
     72. A(B   2,B   7,B   6)          112.5899         0.114079   
     73. A(B   3,B   8,B   7)          112.5899         0.114079   
     74. A(B   2,B   8,B   3)           63.3007         0.117373   
     75. A(B   2,B   8,B   7)           58.3497         0.114079   
     76. A(B   3,B   8,B   9)           58.3497         0.114079   
     77. A(B   7,B   8,B   9)          120.0000         0.111168   
     78. A(B   2,B   8,B   9)          112.5899         0.114079   
     79. A(B   4,B   9,B  10)           58.3497         0.114079   
     80. A(B   8,B   9,B  10)          120.0000         0.111168   
     81. A(B   3,B   9,B  10)          112.5899         0.114079   
     82. A(B   4,B   9,B   8)          112.5899         0.114079   
     83. A(B   3,B   9,B   4)           63.3007         0.117373   
     84. A(B   3,B   9,B   8)           58.3497         0.114079   
     85. A(B   5,B  10,B   9)          112.5899         0.114079   
     86. A(B   5,B  10,B  11)           58.3497         0.114079   
     87. A(B   4,B  10,B   5)           63.3007         0.117373   
     88. A(B   9,B  10,B  11)          120.0000         0.111168   
     89. A(B   4,B  10,B   9)           58.3497         0.114079   
     90. A(B   4,B  10,B  11)          112.5899         0.114079   
     91. A(B   5,B  11,B  10)           58.3497         0.114079   
     92. A(B   5,B  11,B   6)          112.5899         0.114079   
     93. A(B   0,B  11,B   5)           63.3007         0.117373   
     94. A(B   6,B  11,B  10)          120.0000         0.111168   
     95. A(B   0,B  11,B   6)           58.3497         0.114079   
     96. A(B   0,B  11,B  10)          112.5899         0.114079   
     97. D(B   7,B   1,B   0,B   6)     34.0926         0.010000   
     98. D(B   6,B   1,B   0,B  11)    -34.0926         0.010000   
     99. D(B   7,B   1,B   0,B   5)    -65.4144         0.010000   
    100. D(B   6,B   1,B   0,B   5)    -99.5070         0.010000   
    101. D(B   2,B   1,B   0,B   6)     99.5070         0.010000   
    102. D(B   7,B   1,B   0,B  11)     -0.0000         0.010000   
    103. D(B   3,B   2,B   1,B   6)     65.4144         0.010000   
    104. D(B   7,B   2,B   1,B   0)    -99.5070         0.010000   
    105. D(B   7,B   2,B   1,B   6)    -34.0926         0.010000   
    106. D(B   8,B   2,B   1,B   0)    -65.4144         0.010000   
    107. D(B   8,B   2,B   1,B   7)     34.0926         0.010000   
    108. D(B   8,B   2,B   1,B   6)      0.0000         0.010000   
    109. D(B   9,B   3,B   2,B   7)      0.0000         0.010000   
    110. D(B   9,B   3,B   2,B   1)    -65.4144         0.010000   
    111. D(B   8,B   3,B   2,B   1)    -99.5070         0.010000   
    112. D(B   8,B   3,B   2,B   7)    -34.0926         0.010000   
    113. D(B   4,B   3,B   2,B   7)     65.4144         0.010000   
    114. D(B   9,B   3,B   2,B   8)     34.0926         0.010000   
    115. D(B  10,B   4,B   3,B   8)     -0.0000         0.010000   
    116. D(B  10,B   4,B   3,B   2)    -65.4144         0.010000   
    117. D(B   9,B   4,B   3,B   8)    -34.0926         0.010000   
    118. D(B   9,B   4,B   3,B   2)    -99.5070         0.010000   
    119. D(B  10,B   4,B   3,B   9)     34.0926         0.010000   
    120. D(B   5,B   4,B   3,B   8)     65.4144         0.010000   
    121. D(B  10,B   5,B   0,B   1)     65.4144         0.010000   
    122. D(B  11,B   5,B   0,B   1)     99.5070         0.010000   
    123. D(B   4,B   5,B   0,B   6)    -65.4144         0.010000   
    124. D(B  10,B   5,B   0,B  11)    -34.0926         0.010000   
    125. D(B  10,B   5,B   0,B   6)      0.0000         0.010000   
    126. D(B  10,B   5,B   4,B   9)    -34.0926         0.010000   
    127. D(B  11,B   5,B   0,B   6)     34.0926         0.010000   
    128. D(B  11,B   5,B   4,B  10)     34.0926         0.010000   
    129. D(B  11,B   5,B   4,B   9)      0.0000         0.010000   
    130. D(B  11,B   5,B   4,B   3)    -65.4144         0.010000   
    131. D(B   0,B   5,B   4,B   9)     65.4144         0.010000   
    132. D(B  10,B   5,B   4,B   3)    -99.5070         0.010000   
    133. D(B   7,B   6,B   1,B   0)    144.5992         0.010000   
    134. D(B  11,B   6,B   1,B   7)   -112.3155         0.010000   
    135. D(B  11,B   6,B   1,B   0)     32.2836         0.010000   
    136. D(B   0,B   6,B   1,B   2)   -112.3155         0.010000   
    137. D(B   0,B   6,B   1,B   7)   -144.5992         0.010000   
    138. D(B   7,B   6,B   0,B   1)    -32.2836         0.010000   
    139. D(B   1,B   6,B   0,B  11)    144.5992         0.010000   
    140. D(B  11,B   6,B   0,B   5)    -32.2836         0.010000   
    141. D(B  11,B   6,B   0,B   1)   -144.5992         0.010000   
    142. D(B  11,B   6,B   1,B   2)    -80.0319         0.010000   
    143. D(B   1,B   6,B   0,B   5)    112.3155         0.010000   
    144. D(B   7,B   6,B   0,B  11)    112.3155         0.010000   
    145. D(B   1,B   7,B   6,B  11)     99.5070         0.010000   
    146. D(B   1,B   7,B   6,B   0)     34.0926         0.010000   
    147. D(B   8,B   7,B   2,B   1)    144.5992         0.010000   
    148. D(B   1,B   7,B   2,B   8)   -144.5992         0.010000   
    149. D(B   1,B   7,B   2,B   3)   -112.3155         0.010000   
    150. D(B   6,B   7,B   2,B   8)   -112.3155         0.010000   
    151. D(B   8,B   7,B   1,B   0)     80.0319         0.010000   
    152. D(B   6,B   7,B   2,B   3)    -80.0319         0.010000   
    153. D(B   8,B   7,B   1,B   6)    112.3155         0.010000   
    154. D(B   2,B   7,B   1,B   0)    112.3155         0.010000   
    155. D(B   6,B   7,B   2,B   1)     32.2836         0.010000   
    156. D(B   6,B   7,B   1,B   0)    -32.2836         0.010000   
    157. D(B   6,B   7,B   1,B   2)   -144.5992         0.010000   
    158. D(B   2,B   7,B   6,B   0)     -0.0000         0.010000   
    159. D(B   2,B   7,B   1,B   6)    144.5992         0.010000   
    160. D(B   8,B   7,B   6,B   0)    -65.4144         0.010000   
    161. D(B   2,B   7,B   6,B   1)    -34.0926         0.010000   
    162. D(B   2,B   7,B   6,B  11)     65.4144         0.010000   
    163. D(B   9,B   8,B   7,B   1)    -65.4144         0.010000   
    164. D(B   3,B   8,B   7,B   2)    -34.0926         0.010000   
    165. D(B   3,B   8,B   7,B   6)     65.4144         0.010000   
    166. D(B   3,B   8,B   7,B   1)      0.0000         0.010000   
    167. D(B   2,B   8,B   7,B   6)     99.5070         0.010000   
    168. D(B   9,B   8,B   3,B   2)    144.5992         0.010000   
    169. D(B   7,B   8,B   3,B   4)    -80.0319         0.010000   
    170. D(B   7,B   8,B   3,B   9)   -112.3155         0.010000   
    171. D(B   7,B   8,B   3,B   2)     32.2836         0.010000   
    172. D(B   2,B   8,B   3,B   4)   -112.3155         0.010000   
    173. D(B   2,B   8,B   3,B   9)   -144.5992         0.010000   
    174. D(B   2,B   8,B   7,B   1)     34.0926         0.010000   
    175. D(B   9,B   8,B   2,B   1)     80.0319         0.010000   
    176. D(B   3,B   8,B   2,B   7)    144.5992         0.010000   
    177. D(B   7,B   8,B   2,B   3)   -144.5992         0.010000   
    178. D(B   7,B   8,B   2,B   1)    -32.2836         0.010000   
    179. D(B   9,B   8,B   2,B   7)    112.3155         0.010000   
    180. D(B   3,B   8,B   2,B   1)    112.3155         0.010000   
    181. D(B  10,B   9,B   8,B   2)    -65.4144         0.010000   
    182. D(B   4,B   9,B   8,B   3)    -34.0926         0.010000   
    183. D(B   4,B   9,B   8,B   7)     65.4144         0.010000   
    184. D(B   4,B   9,B   8,B   2)      0.0000         0.010000   
    185. D(B   3,B   9,B   8,B   7)     99.5070         0.010000   
    186. D(B   3,B   9,B   8,B   2)     34.0926         0.010000   
    187. D(B  10,B   9,B   4,B   3)    144.5992         0.010000   
    188. D(B   8,B   9,B   4,B   5)    -80.0319         0.010000   
    189. D(B   8,B   9,B   4,B  10)   -112.3155         0.010000   
    190. D(B   8,B   9,B   4,B   3)     32.2836         0.010000   
    191. D(B   3,B   9,B   4,B   5)   -112.3155         0.010000   
    192. D(B   3,B   9,B   4,B  10)   -144.5992         0.010000   
    193. D(B  10,B   9,B   3,B   2)     80.0319         0.010000   
    194. D(B  10,B   9,B   3,B   8)    112.3155         0.010000   
    195. D(B   4,B   9,B   3,B   2)    112.3155         0.010000   
    196. D(B   4,B   9,B   3,B   8)    144.5992         0.010000   
    197. D(B   8,B   9,B   3,B   4)   -144.5992         0.010000   
    198. D(B   8,B   9,B   3,B   2)    -32.2836         0.010000   
    199. D(B   5,B  10,B   9,B   3)     -0.0000         0.010000   
    200. D(B  11,B  10,B   9,B   8)      0.0000         0.010000   
    201. D(B  11,B  10,B   9,B   3)    -65.4144         0.010000   
    202. D(B   4,B  10,B   9,B   8)     99.5070         0.010000   
    203. D(B   4,B  10,B   9,B   3)     34.0926         0.010000   
    204. D(B   9,B  10,B   5,B   4)     32.2836         0.010000   
    205. D(B   9,B  10,B   5,B  11)   -112.3155         0.010000   
    206. D(B  11,B  10,B   5,B   0)     32.2836         0.010000   
    207. D(B  11,B  10,B   5,B   4)    144.5992         0.010000   
    208. D(B   4,B  10,B   5,B   0)   -112.3155         0.010000   
    209. D(B   4,B  10,B   5,B  11)   -144.5992         0.010000   
    210. D(B   5,B  10,B   4,B   9)    144.5992         0.010000   
    211. D(B   9,B  10,B   4,B   5)   -144.5992         0.010000   
    212. D(B   9,B  10,B   4,B   3)    -32.2836         0.010000   
    213. D(B  11,B  10,B   4,B   5)    -32.2836         0.010000   
    214. D(B  11,B  10,B   9,B   4)    -99.5070         0.010000   
    215. D(B  11,B  10,B   4,B   3)     80.0319         0.010000   
    216. D(B  11,B  10,B   4,B   9)    112.3155         0.010000   
    217. D(B   5,B  11,B   0,B   6)   -144.5992         0.010000   
    218. D(B  10,B  11,B   0,B   5)     32.2836         0.010000   
    219. D(B  10,B  11,B   0,B   1)    -80.0319         0.010000   
    220. D(B  10,B  11,B   0,B   6)   -112.3155         0.010000   
    221. D(B   6,B  11,B   0,B   5)    144.5992         0.010000   
    222. D(B   0,B  11,B   5,B  10)    144.5992         0.010000   
    223. D(B   6,B  11,B   0,B   1)     32.2836         0.010000   
    224. D(B   6,B  11,B  10,B   5)    -99.5070         0.010000   
    225. D(B   6,B  11,B  10,B   4)    -65.4144         0.010000   
    226. D(B   0,B  11,B  10,B   5)    -34.0926         0.010000   
    227. D(B   0,B  11,B  10,B   9)     65.4144         0.010000   
    228. D(B   5,B  11,B   6,B   0)     34.0926         0.010000   
    229. D(B  10,B  11,B   6,B   7)      0.0000         0.010000   
    230. D(B  10,B  11,B   6,B   1)     65.4144         0.010000   
    231. D(B  10,B  11,B   6,B   0)     99.5070         0.010000   
    232. D(B   0,B  11,B   6,B   7)    -99.5070         0.010000   
    233. D(B   0,B  11,B   6,B   1)    -34.0926         0.010000   
    234. D(B   0,B  11,B  10,B   4)      0.0000         0.010000   
    235. D(B  10,B  11,B   5,B   4)    -32.2836         0.010000   
    236. D(B   6,B  11,B   5,B   0)    -32.2836         0.010000   
    237. D(B   6,B  11,B   5,B   4)     80.0319         0.010000   
    238. D(B   6,B  11,B  10,B   9)      0.0000         0.010000   
    239. D(B   6,B  11,B   5,B  10)    112.3155         0.010000   
    240. D(B   0,B  11,B   5,B   4)    112.3155         0.010000   
    -----------------------------------------------------------------

Number of atoms                         .... 12
Number of degrees of freedom            .... 240


         *************************************************************
         *                GEOMETRY OPTIMIZATION CYCLE   1            *
         *************************************************************
---------------------------------
CARTESIAN COORDINATES (ANGSTROEM)
---------------------------------
  B      3.148404   -0.000000    1.259362
  B      1.574202    2.726598    1.259362
  B     -1.574202    2.726598    1.259362
  B     -3.148404    0.000000    1.259362
  B     -1.574202   -2.726598    1.259362
  B      1.574202   -2.726598    1.259362
  B      2.726598    1.574202   -1.259362
  B      0.000000    3.148404   -1.259362
  B     -2.726598    1.574202   -1.259362
  B     -2.726598   -1.574202   -1.259362
  B     -0.000000   -3.148404   -1.259362
  B      2.726598   -1.574202   -1.259362

----------------------------
CARTESIAN COORDINATES (A.U.)
----------------------------
  NO LB      ZA    FRAG     MASS         X           Y           Z
   0 B     5.0000    0    10.810    5.949622   -0.000000    2.379849
   1 B     5.0000    0    10.810    2.974811    5.152524    2.379849
   2 B     5.0000    0    10.810   -2.974811    5.152524    2.379849
   3 B     5.0000    0    10.810   -5.949622    0.000000    2.379849
   4 B     5.0000    0    10.810   -2.974811   -5.152524    2.379849
   5 B     5.0000    0    10.810    2.974811   -5.152524    2.379849
   6 B     5.0000    0    10.810    5.152524    2.974811   -2.379849
   7 B     5.0000    0    10.810    0.000000    5.949622   -2.379849
   8 B     5.0000    0    10.810   -5.152524    2.974811   -2.379849
   9 B     5.0000    0    10.810   -5.152524   -2.974811   -2.379849
  10 B     5.0000    0    10.810   -0.000000   -5.949622   -2.379849
  11 B     5.0000    0    10.810    5.152524   -2.974811   -2.379849

--------------------------------
INTERNAL COORDINATES (ANGSTROEM)
--------------------------------
 B      0   0   0     0.000000000000     0.00000000     0.00000000
 B      1   0   0     3.148404192568     0.00000000     0.00000000
 B      2   1   0     3.148404180000   120.00000008     0.00000000
 B      3   2   1     3.148404192568   120.00000008     0.00000000
 B      4   3   2     3.148404192568   119.99999984     0.00000000
 B      5   4   3     3.148404180000   120.00000008     0.00000000
 B      1   2   3     3.000000006309    58.34966006    99.50700215
 B      2   1   3     3.000000006309   112.58986250   294.58559901
 B      4   3   2     3.000000006309    58.34966006   260.49299785
 B      4   3   2     3.000000006309   112.58986240   294.58559910
 B      5   4   3     3.000000006309   112.58986250   294.58559901
 B      1   2   3     3.000000006309   112.58986240    65.41440090

---------------------------
INTERNAL COORDINATES (A.U.)
---------------------------
 B      0   0   0     0.000000000000     0.00000000     0.00000000
 B      1   0   0     5.949621682843     0.00000000     0.00000000
 B      2   1   0     5.949621659093   120.00000008     0.00000000
 B      3   2   1     5.949621682843   120.00000008     0.00000000
 B      4   3   2     5.949621682843   119.99999984     0.00000000
 B      5   4   3     5.949621659093   120.00000008     0.00000000
 B      1   2   3     5.669178413687    58.34966006    99.50700215
 B      2   1   3     5.669178413687   112.58986250   294.58559901
 B      4   3   2     5.669178413687    58.34966006   260.49299785
 B      4   3   2     5.669178413687   112.58986240   294.58559910
 B      5   4   3     5.669178413687   112.58986250   294.58559901
 B      1   2   3     5.669178413687   112.58986240    65.41440090

---------------------
BASIS SET INFORMATION
---------------------
There are 1 groups of distinct atoms

 Group   1 Type B   : 7s4p1d contracted to 3s2p1d pattern {511/31/1}

Atom   0B    basis set group =>   1
Atom   1B    basis set group =>   1
Atom   2B    basis set group =>   1
Atom   3B    basis set group =>   1
Atom   4B    basis set group =>   1
Atom   5B    basis set group =>   1
Atom   6B    basis set group =>   1
Atom   7B    basis set group =>   1
Atom   8B    basis set group =>   1
Atom   9B    basis set group =>   1
Atom  10B    basis set group =>   1
Atom  11B    basis set group =>   1
---------------------------------
AUXILIARY/J BASIS SET INFORMATION
---------------------------------
There are 1 groups of distinct atoms

 Group   1 Type B   : 12s5p4d2f1g contracted to 6s4p3d1f1g pattern {711111/2111/211/2/1}

Atom   0B    basis set group =>   1
Atom   1B    basis set group =>   1
Atom   2B    basis set group =>   1
Atom   3B    basis set group =>   1
Atom   4B    basis set group =>   1
Atom   5B    basis set group =>   1
Atom   6B    basis set group =>   1
Atom   7B    basis set group =>   1
Atom   8B    basis set group =>   1
Atom   9B    basis set group =>   1
Atom  10B    basis set group =>   1
Atom  11B    basis set group =>   1


           ************************************************************
           *        Program running with 8 parallel MPI-processes     *
           *              working on a common directory               *
           ************************************************************
------------------------------------------------------------------------------
                             ORCA STARTUP CALCULATIONS
                           -- RI-GTO INTEGRALS CHOSEN --
------------------------------------------------------------------------------
------------------------------------------------------------------------------
                   ___                                                        
                  /   \      - P O W E R E D   B Y -                         
                 /     \                                                     
                 |  |  |   _    _      __       _____    __    __             
                 |  |  |  | |  | |    /  \     |  _  \  |  |  /  |          
                  \  \/   | |  | |   /    \    | | | |  |  | /  /          
                 / \  \   | |__| |  /  /\  \   | |_| |  |  |/  /          
                |  |  |   |  __  | /  /__\  \  |    /   |      \           
                |  |  |   | |  | | |   __   |  |    \   |  |\   \          
                \     /   | |  | | |  |  |  |  | |\  \  |  | \   \       
                 \___/    |_|  |_| |__|  |__|  |_| \__\ |__|  \__/        
                                                                              
                      - O R C A' S   B I G   F R I E N D -                    
                                      &                                       
                       - I N T E G R A L  F E E D E R -                       
                                                                              
 v1 FN, 2020, v2 2021, v3 2022-2024                                           
------------------------------------------------------------------------------


----------------------
SHARK INTEGRAL PACKAGE
----------------------

Number of atoms                             ...     12
Number of basis functions                   ...    168
Number of shells                            ...     72
Maximum angular momentum                    ...      2
Integral batch strategy                     ... SHARK/LIBINT Hybrid
RI-J (if used) integral strategy            ... SPLIT-RIJ (Revised 2003 algorithm where possible)
Printlevel                                  ...      1
Contraction scheme used                     ... SEGMENTED contraction
Prescreening option                         ... SCHWARTZ
   Thresh                                   ... 2.500e-11
   Tcut                                     ... 2.500e-12
   Tpresel                                  ... 2.500e-12 
Coulomb Range Separation                    ... NOT USED
Exchange Range Separation                   ... NOT USED
Multipole approximations                    ... NOT USED
Finite Nucleus Model                        ... NOT USED
CABS basis                                  ... NOT available
Auxiliary Coulomb fitting basis             ... AVAILABLE
   # of basis functions in Aux-J            ...    588
   # of shells in Aux-J                     ...    180
   Maximum angular momentum in Aux-J        ...      4
Auxiliary J/K fitting basis                 ... NOT available
Auxiliary Correlation fitting basis         ... NOT available
Auxiliary 'external' fitting basis          ... NOT available

Checking pre-screening integrals            ... done (  0.0 sec) Dimension = 72
   => SHARK Basis and OBASIS are compatible. Storing Pre-screening
Shell pair information
Shell pair cut-off parameter TPreSel        ...   2.5e-12
Total number of shell pairs                 ...      2628
Shell pairs after pre-screening             ...      2316
Total number of primitive shell pairs       ...     10596
Primitive shell pairs kept                  ...      5952
          la=0 lb=0:    564 shell pairs
          la=1 lb=0:    780 shell pairs
          la=1 lb=1:    300 shell pairs
          la=2 lb=0:    348 shell pairs
          la=2 lb=1:    264 shell pairs
          la=2 lb=2:     60 shell pairs

Checking whether 4 symmetric matrices of dimension 168 fit in memory
:Max Core in MB      =   2500.00
 MB in use           =      6.33
 MB left             =   2493.67
 MB needed           =      0.43
 Data fit in memory  = YES
Calculating RI/J V-Matrix + Cholesky decomp.... done (  0.0 sec)
Calculating Nuclear repulsion               ... done (  0.0 sec) ENN=    200.207441730598 Eh

Diagonalization of the overlap matrix:
Smallest eigenvalue                        ... 3.327e-02
Time for diagonalization                   ...    0.004 sec
Threshold for overlap eigenvalues          ... 1.000e-07
Number of eigenvalues below threshold      ... 0
Time for construction of square roots      ...    0.002 sec
Total time needed                          ...    0.009 sec

-------------------
DFT GRID GENERATION
-------------------

General Integration Accuracy     IntAcc      ... 4.388
Radial Grid Type                 RadialGrid  ... OptM3 with GC (2021)
Angular Grid (max. ang.)         AngularGrid ... 4 (Lebedev-302)
Angular grid pruning method      GridPruning ... 4 (adaptive)
Weight generation scheme         WeightScheme... mBecke (2022)
Basis function cutoff            BFCut       ... 1.0000e-11
Integration weight cutoff        WCut        ... 1.0000e-14
Partially contracted basis set               ... off
Rotationally invariant grid construction     ... off
Angular grids for H and He will be reduced by one unit

Total number of grid points                  ...    73056
Total number of batches                      ...     1148
Average number of points per batch           ...       63
Average number of grid points per atom       ...     6088
Grids setup in   1.0 sec
Initializing property integral containers    ... done (  0.0 sec)

SHARK setup successfully completed in   1.2 seconds

Maximum memory used throughout the entire STARTUP-calculation: 19.5 MB


           ************************************************************
           *        Program running with 8 parallel MPI-processes     *
           *              working on a common directory               *
           ************************************************************
-------------------------------------------------------------------------------
                                 ORCA GUESS
                   Start orbitals & Density for SCF / CASSCF
-------------------------------------------------------------------------------

------------
SCF SETTINGS
------------
Hamiltonian:
 Density Functional     Method          .... DFT(GTOs)
 Exchange Functional    Exchange        .... B88
   X-Alpha parameter    XAlpha          ....  0.666667
   Becke's b parameter  XBeta           ....  0.004200
 Correlation Functional Correlation     .... P86
 LDA part of GGA corr.  LDAOpt          .... PW91-LDA
 Gradients option       PostSCFGGA      .... off
   NL short-range parameter             ....  4.400000
 RI-approximation to the Coulomb term is turned on
   Number of AuxJ basis functions       .... 588


General Settings:
 Integral files         IntName         .... hex_antiprism_nn3.00
 Hartree-Fock type      HFTyp           .... RHF
 Total Charge           Charge          ....    0
 Multiplicity           Mult            ....    1
 Number of Electrons    NEL             ....   60
 Basis Dimension        Dim             ....  168
 Nuclear Repulsion      ENuc            ....    200.2074417306 Eh

Convergence Acceleration:
 AO-DIIS                CNVDIIS         .... on
   Start iteration      DIISMaxIt       ....     0
   Startup error        DIISStart       ....  0.200000
   # of expansion vecs  DIISMaxEq       ....     5
   Bias factor          DIISBfac        ....   1.050
   Max. coefficient     DIISMaxC        ....  10.000
 MO-DIIS                CNVKDIIS        .... off
 Trust-Rad. Augm. Hess. CNVTRAH         .... auto
   Auto Start mean grad. ratio tolernc. ....  1.125000
   Auto Start start iteration           ....    50
   Auto Start num. interpolation iter.  ....    10
   Max. Number of Micro iterations      ....    24
   Max. Number of Macro iterations      .... Maxiter - #DIIS iter
   Number of Davidson start vectors     ....     2
   Converg. threshold    (grad. norm)   ....   1.000e-05
   Grad. Scal. Fac. for Micro threshold ....   0.100
   Minimum threshold for Micro iter.    ....   1.000e-02
   NR start threshold (gradient norm)   ....   1.000e-04
   Initial trust radius                 ....   0.400
   Minimum AH scaling param. (alpha)    ....   1.000
   Maximum AH scaling param. (alpha)    .... 1000.000
   Quad. conv. algorithm                .... NR
   White noise on init. David. guess    .... on
   Maximum white noise                  ....   0.010
   Pseudo random numbers                .... off
   Inactive MOs                         .... canonical
   Orbital update algorithm             .... Taylor
   Preconditioner                       .... Diag
   Full preconditioner red. dimension   ....   250
 SOSCF                 CNVSOSCF           .... on
   Start iteration     SOSCFMaxIt         ....   150
   Startup grad/error  SOSCFStart         ....  0.001000
   Hessian update      SOSCFHessUp        .... L-BFGS
   Autom. constraints  SOSCFAutoConstrain .... off
 Level Shifting         CNVShift        .... on
   Level shift para.    LevelShift      ....    0.2500
   Turn off err/grad.   ShiftErr        ....    0.0000
 Zerner damping         CNVZerner       .... off
 Static damping         CNVDamp         .... on
   Fraction old density DampFac         ....    0.8500
   Max. Damping (<1)    DampMax         ....    0.9800
   Min. Damping (>=0)   DampMin         ....    0.0000
   Turn off err/grad.   DampErr         ....    0.0300

SCF Procedure:
 Maximum # iterations   MaxIter         ....   125
 SCF integral mode      SCFMode         .... Direct
   Integral package                     .... SHARK and LIBINT hybrid scheme
 Reset frequency        DirectResetFreq ....    20
 Integral Threshold     Thresh          ....  2.500e-11 Eh
 Primitive CutOff       TCut            ....  2.500e-12 Eh

Convergence Tolerance:
 Convergence Check Mode ConvCheckMode   .... Total+1el-Energy
 Convergence forced     ConvForced      .... 0
 Energy Change          TolE            ....  1.000e-08 Eh
 1-El. energy change                    ....  1.000e-05 Eh
 Orbital Gradient       TolG            ....  1.000e-05
 Orbital Rotation angle TolX            ....  1.000e-05
 DIIS Error             TolErr          ....  5.000e-07

------------------------------
INITIAL GUESS: MODEL POTENTIAL
------------------------------
Loading Hartree-Fock densities                     ... done
Calculating cut-offs                               ... done
Initializing the effective Hamiltonian             ... done
Setting up the integral package (SHARK)            ... done
Starting the Coulomb interaction                   ... done (   0.1 sec)
Making the grid                                    ... done (   0.3 sec)
Mapping shells                                     ... done
Starting the XC term evaluation                    ... done (   0.0 sec)
  promolecular density results
     # of electrons  =     59.999690706
     EX              =    -44.261005320
     EC              =     -1.666700498
     EX+EC           =    -45.927705818
Transforming the Hamiltonian                       ... done (   0.0 sec)
Diagonalizing the Hamiltonian                      ... done (   0.0 sec)
Back transforming the eigenvectors                 ... done (   0.0 sec)
Now organizing SCF variables                       ... done
                      ------------------
                      INITIAL GUESS DONE (   0.5 sec)
                      ------------------
             **** ENERGY FILE WAS UPDATED (hex_antiprism_nn3.00.en.tmp) ****
Finished Guess after   1.1 sec
Maximum memory used throughout the entire GUESS-calculation: 9.0 MB


           ************************************************************
           *        Program running with 8 parallel MPI-processes     *
           *              working on a common directory               *
           ************************************************************

-------------------------------------------------------------------------------------------
                                      ORCA LEAN-SCF
                              memory conserving SCF solver
-------------------------------------------------------------------------------------------

----------------------------------------D-I-I-S--------------------------------------------
Iteration    Energy (Eh)           Delta-E    RMSDP     MaxDP     DIISErr   Damp  Time(sec)
-------------------------------------------------------------------------------------------
               ***  Starting incremental Fock matrix formation  ***
    1    -295.8931548657931216     0.00e+00  8.09e-04  6.72e-03  6.84e-03  0.850   0.7
Warning: op=0 Small HOMO/LUMO gap (   0.004) - skipping pre-diagonalization
         Will do a full diagonalization
    2    -295.8938229203519086    -6.68e-04  9.54e-04  7.96e-03  5.91e-03  0.850   0.9
                               ***Turning on AO-DIIS***
    3    -295.8944186965132417    -5.96e-04  6.86e-04  5.76e-03  4.78e-03  0.850   0.6
    4    -295.8948765917946844    -4.58e-04  3.48e-03  2.93e-02  3.93e-03  0.000   0.4
                              *** Initializing SOSCF ***
---------------------------------------S-O-S-C-F--------------------------------------
Iteration    Energy (Eh)           Delta-E    RMSDP     MaxDP     MaxGrad    Time(sec)
--------------------------------------------------------------------------------------
    5    -295.8969450689919540    -2.07e-03  2.73e-04  2.27e-03  4.16e-04     0.4
               *** Restarting incremental Fock matrix formation ***
    6    -295.8969606235251604    -1.56e-05  1.16e-04  8.96e-04  1.66e-04     0.5
    7    -295.8969628010083284    -2.18e-06  3.27e-05  8.84e-05  6.03e-05     0.4
    8    -295.8969631204479356    -3.19e-07  2.30e-05  1.45e-04  2.31e-05     0.5
    9    -295.8969631741855437    -5.37e-08  5.41e-06  5.65e-05  6.28e-06     0.4
   10    -295.8969631781948806    -4.01e-09  3.19e-06  2.67e-05  6.61e-06     0.4
                 **** Energy Check signals convergence ****

               *****************************************************
               *                     SUCCESS                       *
               *           SCF CONVERGED AFTER  10 CYCLES          *
               *****************************************************

             **** ENERGY FILE WAS UPDATED (hex_antiprism_nn3.00.en.tmp) ****

----------------
TOTAL SCF ENERGY
----------------

Total Energy       :       -295.89696317666272 Eh           -8051.76571 eV

Components:
Nuclear Repulsion  :        200.20744173059808 Eh            5447.92146 eV
Electronic Energy  :       -496.10440490726080 Eh          -13499.68717 eV
One Electron Energy:       -788.17187881099119 Eh          -21447.24718 eV
Two Electron Energy:        292.06747390373039 Eh            7947.56001 eV

Virial components:
Potential Energy   :       -587.88989424412398 Eh          -15997.29731 eV
Kinetic Energy     :        291.99293106746131 Eh            7945.53160 eV
Virial Ratio       :          2.01337029665386

DFT components:
N(Alpha)           :       29.999958457442 electrons
N(Beta)            :       29.999958457442 electrons
N(Total)           :       59.999916914883 electrons
E(X)               :      -44.391188124160 Eh       
E(C)               :       -1.700774359056 Eh       
E(XC)              :      -46.091962483216 Eh       

---------------
SCF CONVERGENCE
---------------

  Last Energy change         ...    4.0093e-09  Tolerance :   1.0000e-08
  Last MAX-Density change    ...    2.6679e-05  Tolerance :   1.0000e-07
  Last RMS-Density change    ...    3.1918e-06  Tolerance :   5.0000e-09
  Last DIIS Error            ...    4.1579e-04  Tolerance :   5.0000e-07
  Last Orbital Gradient      ...    6.6131e-06  Tolerance :   1.0000e-05
  Last Orbital Rotation      ...    2.1403e-05  Tolerance :   1.0000e-05


----------------
ORBITAL ENERGIES
----------------

  NO   OCC          E(Eh)            E(eV) 
   0   2.0000      -6.665687      -181.3826 
   1   2.0000      -6.665687      -181.3826 
   2   2.0000      -6.665639      -181.3813 
   3   2.0000      -6.665639      -181.3813 
   4   2.0000      -6.665635      -181.3812 
   5   2.0000      -6.665635      -181.3811 
   6   2.0000      -6.665607      -181.3804 
   7   2.0000      -6.665607      -181.3804 
   8   2.0000      -6.665592      -181.3800 
   9   2.0000      -6.665592      -181.3800 
  10   2.0000      -6.665584      -181.3798 
  11   2.0000      -6.665564      -181.3792 
  12   2.0000      -0.411212       -11.1896 
  13   2.0000      -0.397376       -10.8131 
  14   2.0000      -0.397376       -10.8131 
  15   2.0000      -0.362672        -9.8688 
  16   2.0000      -0.362670        -9.8688 
  17   2.0000      -0.347530        -9.4568 
  18   2.0000      -0.336671        -9.1613 
  19   2.0000      -0.336671        -9.1613 
  20   2.0000      -0.323342        -8.7986 
  21   2.0000      -0.323342        -8.7986 
  22   2.0000      -0.316038        -8.5998 
  23   2.0000      -0.316036        -8.5998 
  24   2.0000      -0.193311        -5.2603 
  25   2.0000      -0.193311        -5.2603 
  26   2.0000      -0.190051        -5.1715 
  27   2.0000      -0.185134        -5.0377 
  28   2.0000      -0.185132        -5.0377 
  29   2.0000      -0.183938        -5.0052 
  30   0.0000      -0.179358        -4.8806 
  31   0.0000      -0.179358        -4.8806 
  32   0.0000      -0.169707        -4.6180 
  33   0.0000      -0.169706        -4.6179 
  34   0.0000      -0.167000        -4.5443 
  35   0.0000      -0.167000        -4.5443 
  36   0.0000      -0.148771        -4.0483 
  37   0.0000      -0.148771        -4.0483 
  38   0.0000      -0.147763        -4.0208 
  39   0.0000      -0.132137        -3.5956 
  40   0.0000      -0.132135        -3.5956 
*Only the first 10 virtual orbitals were printed.

                    ********************************
                    * MULLIKEN POPULATION ANALYSIS *
                    ********************************

-----------------------
MULLIKEN ATOMIC CHARGES
-----------------------
   0 B :   -0.000015
   1 B :    0.000008
   2 B :    0.000008
   3 B :   -0.000015
   4 B :    0.000008
   5 B :    0.000008
   6 B :    0.000008
   7 B :   -0.000015
   8 B :    0.000008
   9 B :    0.000008
  10 B :   -0.000015
  11 B :    0.000008
Sum of atomic charges:   -0.0000000

--------------------------------
MULLIKEN REDUCED ORBITAL CHARGES
--------------------------------
  0 B s       :     3.916246  s :     3.916246
      pz      :     0.318130  p :     1.081204
      px      :     0.202297
      py      :     0.560777
      dz2     :     0.000895  d :     0.002565
      dxz     :     0.000143
      dyz     :     0.000681
      dx2y2   :     0.000337
      dxy     :     0.000510

  1 B s       :     3.916240  s :     3.916240
      pz      :     0.318112  p :     1.081187
      px      :     0.471168
      py      :     0.291907
      dz2     :     0.000895  d :     0.002565
      dxz     :     0.000546
      dyz     :     0.000278
      dx2y2   :     0.000467
      dxy     :     0.000380

  2 B s       :     3.916240  s :     3.916240
      pz      :     0.318112  p :     1.081187
      px      :     0.471168
      py      :     0.291907
      dz2     :     0.000895  d :     0.002565
      dxz     :     0.000546
      dyz     :     0.000278
      dx2y2   :     0.000467
      dxy     :     0.000380

  3 B s       :     3.916246  s :     3.916246
      pz      :     0.318130  p :     1.081204
      px      :     0.202297
      py      :     0.560777
      dz2     :     0.000895  d :     0.002565
      dxz     :     0.000143
      dyz     :     0.000681
      dx2y2   :     0.000337
      dxy     :     0.000510

  4 B s       :     3.916240  s :     3.916240
      pz      :     0.318112  p :     1.081187
      px      :     0.471168
      py      :     0.291907
      dz2     :     0.000895  d :     0.002565
      dxz     :     0.000546
      dyz     :     0.000278
      dx2y2   :     0.000467
      dxy     :     0.000380

  5 B s       :     3.916240  s :     3.916240
      pz      :     0.318112  p :     1.081187
      px      :     0.471168
      py      :     0.291907
      dz2     :     0.000895  d :     0.002565
      dxz     :     0.000546
      dyz     :     0.000278
      dx2y2   :     0.000467
      dxy     :     0.000380

  6 B s       :     3.916240  s :     3.916240
      pz      :     0.318112  p :     1.081187
      px      :     0.291907
      py      :     0.471168
      dz2     :     0.000895  d :     0.002565
      dxz     :     0.000278
      dyz     :     0.000546
      dx2y2   :     0.000467
      dxy     :     0.000380

  7 B s       :     3.916246  s :     3.916246
      pz      :     0.318130  p :     1.081204
      px      :     0.560777
      py      :     0.202297
      dz2     :     0.000895  d :     0.002565
      dxz     :     0.000681
      dyz     :     0.000143
      dx2y2   :     0.000337
      dxy     :     0.000510

  8 B s       :     3.916240  s :     3.916240
      pz      :     0.318112  p :     1.081187
      px      :     0.291907
      py      :     0.471168
      dz2     :     0.000895  d :     0.002565
      dxz     :     0.000278
      dyz     :     0.000546
      dx2y2   :     0.000467
      dxy     :     0.000380

  9 B s       :     3.916240  s :     3.916240
      pz      :     0.318112  p :     1.081187
      px      :     0.291907
      py      :     0.471168
      dz2     :     0.000895  d :     0.002565
      dxz     :     0.000278
      dyz     :     0.000546
      dx2y2   :     0.000467
      dxy     :     0.000380

 10 B s       :     3.916246  s :     3.916246
      pz      :     0.318130  p :     1.081204
      px      :     0.560777
      py      :     0.202297
      dz2     :     0.000895  d :     0.002565
      dxz     :     0.000681
      dyz     :     0.000143
      dx2y2   :     0.000337
      dxy     :     0.000510

 11 B s       :     3.916240  s :     3.916240
      pz      :     0.318112  p :     1.081187
      px      :     0.291907
      py      :     0.471168
      dz2     :     0.000895  d :     0.002565
      dxz     :     0.000278
      dyz     :     0.000546
      dx2y2   :     0.000467
      dxy     :     0.000380



                     *******************************
                     * LOEWDIN POPULATION ANALYSIS *
                     *******************************

----------------------
LOEWDIN ATOMIC CHARGES
----------------------
   0 B :   -0.000013
   1 B :    0.000007
   2 B :    0.000007
   3 B :   -0.000013
   4 B :    0.000007
   5 B :    0.000007
   6 B :    0.000007
   7 B :   -0.000013
   8 B :    0.000007
   9 B :    0.000007
  10 B :   -0.000013
  11 B :    0.000007

-------------------------------
LOEWDIN REDUCED ORBITAL CHARGES
-------------------------------
  0 B s       :     3.822258  s :     3.822258
      pz      :     0.357457  p :     1.174036
      px      :     0.215477
      py      :     0.601102
      dz2     :     0.001268  d :     0.003720
      dxz     :     0.000179
      dyz     :     0.001140
      dx2y2   :     0.000455
      dxy     :     0.000678

  1 B s       :     3.822254  s :     3.822254
      pz      :     0.357439  p :     1.174019
      px      :     0.504706
      py      :     0.311874
      dz2     :     0.001268  d :     0.003720
      dxz     :     0.000900
      dyz     :     0.000420
      dx2y2   :     0.000622
      dxy     :     0.000511

  2 B s       :     3.822254  s :     3.822254
      pz      :     0.357439  p :     1.174019
      px      :     0.504706
      py      :     0.311874
      dz2     :     0.001268  d :     0.003720
      dxz     :     0.000900
      dyz     :     0.000420
      dx2y2   :     0.000622
      dxy     :     0.000511

  3 B s       :     3.822258  s :     3.822258
      pz      :     0.357457  p :     1.174036
      px      :     0.215477
      py      :     0.601102
      dz2     :     0.001268  d :     0.003720
      dxz     :     0.000179
      dyz     :     0.001140
      dx2y2   :     0.000455
      dxy     :     0.000678

  4 B s       :     3.822254  s :     3.822254
      pz      :     0.357439  p :     1.174019
      px      :     0.504706
      py      :     0.311874
      dz2     :     0.001268  d :     0.003720
      dxz     :     0.000900
      dyz     :     0.000420
      dx2y2   :     0.000622
      dxy     :     0.000511

  5 B s       :     3.822254  s :     3.822254
      pz      :     0.357439  p :     1.174019
      px      :     0.504706
      py      :     0.311874
      dz2     :     0.001268  d :     0.003720
      dxz     :     0.000900
      dyz     :     0.000420
      dx2y2   :     0.000622
      dxy     :     0.000511

  6 B s       :     3.822254  s :     3.822254
      pz      :     0.357439  p :     1.174019
      px      :     0.311874
      py      :     0.504706
      dz2     :     0.001268  d :     0.003720
      dxz     :     0.000420
      dyz     :     0.000900
      dx2y2   :     0.000622
      dxy     :     0.000511

  7 B s       :     3.822258  s :     3.822258
      pz      :     0.357457  p :     1.174036
      px      :     0.601102
      py      :     0.215477
      dz2     :     0.001268  d :     0.003720
      dxz     :     0.001140
      dyz     :     0.000179
      dx2y2   :     0.000455
      dxy     :     0.000678

  8 B s       :     3.822254  s :     3.822254
      pz      :     0.357439  p :     1.174019
      px      :     0.311874
      py      :     0.504706
      dz2     :     0.001268  d :     0.003720
      dxz     :     0.000420
      dyz     :     0.000900
      dx2y2   :     0.000622
      dxy     :     0.000511

  9 B s       :     3.822254  s :     3.822254
      pz      :     0.357439  p :     1.174019
      px      :     0.311874
      py      :     0.504706
      dz2     :     0.001268  d :     0.003720
      dxz     :     0.000420
      dyz     :     0.000900
      dx2y2   :     0.000622
      dxy     :     0.000511

 10 B s       :     3.822258  s :     3.822258
      pz      :     0.357457  p :     1.174036
      px      :     0.601102
      py      :     0.215477
      dz2     :     0.001268  d :     0.003720
      dxz     :     0.001140
      dyz     :     0.000179
      dx2y2   :     0.000455
      dxy     :     0.000678

 11 B s       :     3.822254  s :     3.822254
      pz      :     0.357439  p :     1.174019
      px      :     0.311874
      py      :     0.504706
      dz2     :     0.001268  d :     0.003720
      dxz     :     0.000420
      dyz     :     0.000900
      dx2y2   :     0.000622
      dxy     :     0.000511



                      *****************************
                      * MAYER POPULATION ANALYSIS *
                      *****************************

  NA   - Mulliken gross atomic population
  ZA   - Total nuclear charge
  QA   - Mulliken gross atomic charge
  VA   - Mayer's total valence
  BVA  - Mayer's bonded valence
  FA   - Mayer's free valence

  ATOM       NA         ZA         QA         VA         BVA        FA
  0 B      5.0000     5.0000    -0.0000     1.8386     1.8386     0.0000
  1 B      5.0000     5.0000     0.0000     1.8386     1.8386    -0.0000
  2 B      5.0000     5.0000     0.0000     1.8386     1.8386     0.0000
  3 B      5.0000     5.0000    -0.0000     1.8386     1.8386     0.0000
  4 B      5.0000     5.0000     0.0000     1.8386     1.8386    -0.0000
  5 B      5.0000     5.0000     0.0000     1.8386     1.8386    -0.0000
  6 B      5.0000     5.0000     0.0000     1.8386     1.8386     0.0000
  7 B      5.0000     5.0000    -0.0000     1.8386     1.8386    -0.0000
  8 B      5.0000     5.0000     0.0000     1.8386     1.8386    -0.0000
  9 B      5.0000     5.0000     0.0000     1.8386     1.8386     0.0000
 10 B      5.0000     5.0000    -0.0000     1.8386     1.8386    -0.0000
 11 B      5.0000     5.0000     0.0000     1.8386     1.8386    -0.0000

  Mayer bond orders larger than 0.100000
B(  0-B ,  1-B ) :   0.2745 B(  0-B ,  2-B ) :   0.1107 B(  0-B ,  4-B ) :   0.1107 
B(  0-B ,  5-B ) :   0.2745 B(  0-B ,  6-B ) :   0.2519 B(  0-B ,  7-B ) :   0.1711 
B(  0-B , 10-B ) :   0.1711 B(  0-B , 11-B ) :   0.2519 B(  1-B ,  2-B ) :   0.2745 
B(  1-B ,  3-B ) :   0.1107 B(  1-B ,  5-B ) :   0.1107 B(  1-B ,  6-B ) :   0.2519 
B(  1-B ,  7-B ) :   0.2519 B(  1-B ,  8-B ) :   0.1711 B(  1-B , 11-B ) :   0.1711 
B(  2-B ,  3-B ) :   0.2745 B(  2-B ,  4-B ) :   0.1107 B(  2-B ,  6-B ) :   0.1711 
B(  2-B ,  7-B ) :   0.2519 B(  2-B ,  8-B ) :   0.2519 B(  2-B ,  9-B ) :   0.1711 
B(  3-B ,  4-B ) :   0.2745 B(  3-B ,  5-B ) :   0.1107 B(  3-B ,  7-B ) :   0.1711 
B(  3-B ,  8-B ) :   0.2519 B(  3-B ,  9-B ) :   0.2519 B(  3-B , 10-B ) :   0.1711 
B(  4-B ,  5-B ) :   0.2745 B(  4-B ,  8-B ) :   0.1711 B(  4-B ,  9-B ) :   0.2519 
B(  4-B , 10-B ) :   0.2519 B(  4-B , 11-B ) :   0.1711 B(  5-B ,  6-B ) :   0.1711 
B(  5-B ,  9-B ) :   0.1711 B(  5-B , 10-B ) :   0.2519 B(  5-B , 11-B ) :   0.2519 
B(  6-B ,  7-B ) :   0.2745 B(  6-B ,  8-B ) :   0.1107 B(  6-B , 10-B ) :   0.1107 
B(  6-B , 11-B ) :   0.2745 B(  7-B ,  8-B ) :   0.2745 B(  7-B ,  9-B ) :   0.1107 
B(  7-B , 11-B ) :   0.1107 B(  8-B ,  9-B ) :   0.2745 B(  8-B , 10-B ) :   0.1107 
B(  9-B , 10-B ) :   0.2745 B(  9-B , 11-B ) :   0.1107 B( 10-B , 11-B ) :   0.2745 


-------
TIMINGS
-------

Total SCF time: 0 days 0 hours 0 min 6 sec 

Total time                  ....       6.112 sec
Sum of individual times     ....       5.694 sec  ( 93.2%)

SCF preparation             ....       0.612 sec  ( 10.0%)
Fock matrix formation       ....       3.675 sec  ( 60.1%)
  Startup                   ....       0.058 sec  (  1.6% of F)
  Split-RI-J                ....       1.037 sec  ( 28.2% of F)
  XC integration            ....       2.527 sec  ( 68.8% of F)
    XC Preparation          ....       0.000 sec  (  0.0% of XC)
    Basis function eval.    ....       0.360 sec  ( 14.2% of XC)
    Density eval.           ....       0.194 sec  (  7.7% of XC)
    XC-Functional eval.     ....       0.067 sec  (  2.7% of XC)
    XC-Potential eval.      ....       0.178 sec  (  7.0% of XC)
Diagonalization             ....       0.000 sec  (  0.0%)
Density matrix formation    ....       0.155 sec  (  2.5%)
Total Energy calculation    ....       0.123 sec  (  2.0%)
Population analysis         ....       0.063 sec  (  1.0%)
Orbital Transformation      ....       0.075 sec  (  1.2%)
Orbital Orthonormalization  ....       0.000 sec  (  0.0%)
DIIS solution               ....       0.463 sec  (  7.6%)
SOSCF solution              ....       0.528 sec  (  8.6%)
Finished LeanSCF after   6.1 sec

Maximum memory used throughout the entire LEANSCF-calculation: 9.3 MB


-------------------------------------------------------------------------------
                          DFT DISPERSION CORRECTION                            
                                                                               
                              DFTD3 V3.1  Rev 1                                
                          USING Becke-Johnson damping                          
-------------------------------------------------------------------------------
The BP86 functional is recognized
Active option DFTDOPT                   ...         4   

molecular C6(AA) [au] = 15301.352310 


            DFT-D V3
 parameters
 s6 scaling factor         :     1.0000 
 a1 scaling factor         :     0.3946 
 s8 scaling factor         :     3.2822 
 a2 scaling factor         :     4.8516 
 ad hoc parameters k1-k3   :    16.0000     1.3333    -4.0000 

 Edisp/kcal,au: -33.706104591614  -0.053714091005 
 E6   /kcal   :  -9.947531099 
 E8   /kcal   : -23.758573493 
 % E8         :  70.487449620 

-------------------------   ----------------
Dispersion correction           -0.053714091
-------------------------   ----------------


-------------------------   --------------------
FINAL SINGLE POINT ENERGY      -295.950677267667
-------------------------   --------------------



           ************************************************************
           *        Program running with 8 parallel MPI-processes     *
           *              working on a common directory               *
           ************************************************************
------------------------------------------------------------------------------
                         ORCA SCF GRADIENT CALCULATION
------------------------------------------------------------------------------

Nuc. rep. gradient        (SHARK) ... done (  0.0 sec)
HCore & Overlap gradient  (SHARK) ... done (  0.1 sec)
Split-RIJ-J gradient      (SHARK) ... done (  0.6 sec)
XC gradient                       ... done (  0.8 sec)
Dispersion correction             ... done (  0.1 sec)

-------------------
DISPERSION GRADIENT
-------------------

   1   B   :    0.001006667   -0.000000000    0.000747620
   2   B   :    0.000503333    0.000871799    0.000747620
   3   B   :   -0.000503333    0.000871799    0.000747620
   4   B   :   -0.001006667    0.000000000    0.000747620
   5   B   :   -0.000503333   -0.000871799    0.000747620
   6   B   :    0.000503333   -0.000871799    0.000747620
   7   B   :    0.000871799    0.000503333   -0.000747620
   8   B   :   -0.000000000    0.001006667   -0.000747620
   9   B   :   -0.000871799    0.000503333   -0.000747620
  10   B   :   -0.000871799   -0.000503333   -0.000747620
  11   B   :    0.000000000   -0.001006667   -0.000747620
  12   B   :    0.000871799   -0.000503333   -0.000747620

Difference to translation invariance:
           :   -0.0000000000    0.0000000000   -0.0000000000

Difference to rotation invariance:
           :   -0.0000000000    0.0000000000    0.0000000000

Norm of the Dispersion gradient    ...    0.0043437048
RMS gradient                       ...    0.0007239508
MAX gradient                       ...    0.0010066669

------------------
CARTESIAN GRADIENT
------------------

   1   B   :    0.017706031    0.000000000    0.025858517
   2   B   :    0.008862372    0.015353789    0.025864920
   3   B   :   -0.008862374    0.015353788    0.025864919
   4   B   :   -0.017706031   -0.000000001    0.025858518
   5   B   :   -0.008862377   -0.015353791    0.025864920
   6   B   :    0.008862373   -0.015353790    0.025864917
   7   B   :    0.015353792    0.008862376   -0.025864920
   8   B   :    0.000000002    0.017706036   -0.025858519
   9   B   :   -0.015353789    0.008862376   -0.025864919
  10   B   :   -0.015353788   -0.008862374   -0.025864918
  11   B   :   -0.000000000   -0.017706033   -0.025858517
  12   B   :    0.015353789   -0.008862375   -0.025864919

Difference to translation invariance:
           :    0.0000000000    0.0000000000    0.0000000000

Difference to rotation invariance:
           :    0.0000000207   -0.0000000091   -0.0000000199

Norm of the Cartesian gradient     ...    0.1086041561
RMS gradient                       ...    0.0181006927
MAX gradient                       ...    0.0258649203

-------
TIMINGS
-------

Total SCF gradient time     ....        1.564 sec

Densities                   ....       0.001 sec  (  0.1%)
One electron gradient       ....       0.061 sec  (  3.9%)
RI-J Coulomb gradient       ....       0.605 sec  ( 38.7%)
XC gradient                 ....       0.829 sec  ( 53.0%)

Maximum memory used throughout the entire SCFGRAD-calculation: 29.0 MB
------------------------------------------------------------------------------
                         ORCA GEOMETRY RELAXATION STEP
------------------------------------------------------------------------------

Reading the OPT-File                    .... done
Getting information on internals        .... done
Copying old internal coords+grads       .... done
Making the new internal coordinates     .... (2022 redundants) done
Validating the new internal coordinates .... (2022 redundants) done
Calculating the B-matrix                .... done
Calculating the G,G- and P matrices     .... done
Transforming gradient to internals      .... done
Projecting the internal gradient        .... done
Number of atoms                         ....  12
Number of internal coordinates          .... 240
Current Energy                          ....  -295.950677268 Eh
Current gradient norm                   ....     0.108604156 Eh/bohr
Maximum allowed component of the step   ....  0.300
Current trust radius                    ....  0.300
Evaluating the initial hessian          ....  (Almloef) done
Projecting the Hessian                  .... done
Forming the augmented Hessian           .... done
Diagonalizing the augmented Hessian     .... done
Last element of RFO vector              ....  0.731805212
Lowest eigenvalues of augmented Hessian:
 -0.065770686  0.012054851  0.012061770  0.012474548  0.012482084
Length of the computed step             ....  0.931277669
Warning: the length of the step is outside the trust region - taking restricted step instead
The input lambda is                     ....     0.009000
   iter:   5  x=    0.002406  g=76370.332508 f(x)=   193.305567
   iter:  10  x=   -0.046849  g=  177.923705 f(x)=     3.313825
   iter:  15  x=   -0.220322  g=    1.128878 f(x)=     0.026697
   iter:  20  x=   -0.225349  g=    0.764576 f(x)=     0.000000
The output lambda is                    ....    -0.225349 (20 iterations)
The final length of the internal step   ....  0.300000000
Converting the step to Cartesian space:
 Initial RMS(Int)=    0.0193649167
Transforming coordinates:
 Iter   0:  RMS(Cart)=    0.0374386450 RMS(Int)=    0.0193647938
done
Storing new coordinates                 .... done

                                .--------------------.
          ----------------------|Geometry convergence|-------------------------
          Item                value                   Tolerance       Converged
          ---------------------------------------------------------------------
          RMS gradient        0.0045591007            0.0001000000      NO
          MAX gradient        0.0151494005            0.0003000000      NO
          RMS step            0.0193649167            0.0020000000      NO
          MAX step            0.0641012312            0.0040000000      NO
          -------------------------------------------------------------------------
          ........................................................
          Max(Bonds)      0.0339      Max(Angles)    0.11
          Max(Dihed)        0.07      Max(Improp)    0.00
          ---------------------------------------------------------------------

The optimization has not yet converged - more geometry cycles are needed


    ---------------------------------------------------------------------------
                         Redundant Internal Coordinates
                            (Angstroem and degrees)

        Definition                    Value    dE/dq     Step     New-Value
    ----------------------------------------------------------------------------
     1. B(B   1,B   0)                3.1484  0.013698 -0.0309    3.1175   
     2. B(B   2,B   1)                3.1484  0.013682 -0.0309    3.1175   
     3. B(B   3,B   2)                3.1484  0.013699 -0.0309    3.1175   
     4. B(B   4,B   3)                3.1484  0.013695 -0.0309    3.1175   
     5. B(B   5,B   0)                3.1484  0.013673 -0.0309    3.1175   
     6. B(B   5,B   4)                3.1484  0.013633 -0.0308    3.1176   
     7. B(B   6,B   1)                3.0000  0.015056 -0.0337    2.9663   
     8. B(B   6,B   0)                3.0000  0.015093 -0.0338    2.9662   
     9. B(B   7,B   6)                3.1484  0.013703 -0.0309    3.1175   
    10. B(B   7,B   1)                3.0000  0.015083 -0.0338    2.9662   
    11. B(B   7,B   2)                3.0000  0.015116 -0.0339    2.9661   
    12. B(B   8,B   3)                3.0000  0.015104 -0.0338    2.9662   
    13. B(B   8,B   7)                3.1484  0.013709 -0.0309    3.1175   
    14. B(B   8,B   2)                3.0000  0.015102 -0.0338    2.9662   
    15. B(B   9,B   8)                3.1484  0.013685 -0.0309    3.1175   
    16. B(B   9,B   3)                3.0000  0.015074 -0.0338    2.9662   
    17. B(B   9,B   4)                3.0000  0.015078 -0.0338    2.9662   
    18. B(B  10,B   5)                3.0000  0.015124 -0.0339    2.9661   
    19. B(B  10,B   9)                3.1484  0.013678 -0.0309    3.1175   
    20. B(B  10,B   4)                3.0000  0.015119 -0.0339    2.9661   
    21. B(B  11,B   6)                3.1484  0.013655 -0.0308    3.1176   
    22. B(B  11,B   5)                3.0000  0.015149 -0.0339    2.9661   
    23. B(B  11,B  10)                3.1484  0.013627 -0.0308    3.1176   
    24. B(B  11,B   0)                3.0000  0.015094 -0.0338    2.9662   
    25. A(B   1,B   0,B   5)          120.00  0.000013   -0.00    120.00   
    26. A(B   5,B   0,B  11)           58.35  0.000235   -0.05     58.30   
    27. A(B   5,B   0,B   6)          112.59 -0.000141    0.03    112.62   
[...]
      dyz     :     0.011614
      dx2y2   :     0.010428
      dxy     :     0.009046

  9 B s       :     2.725024  s :     2.725024
      pz      :     0.755886  p :     2.218989
      px      :     0.662763
      py      :     0.800340
      dz2     :     0.014556  d :     0.056184
      dxz     :     0.010543
      dyz     :     0.011609
      dx2y2   :     0.010427
      dxy     :     0.009048

 10 B s       :     2.724493  s :     2.724493
      pz      :     0.755542  p :     2.218217
      px      :     0.868914
      py      :     0.593761
      dz2     :     0.014546  d :     0.056153
      dxz     :     0.012127
      dyz     :     0.009981
      dx2y2   :     0.008385
      dxy     :     0.011113

 11 B s       :     2.724841  s :     2.724841
      pz      :     0.755765  p :     2.219076
      px      :     0.663010
      py      :     0.800301
      dz2     :     0.014560  d :     0.056193
      dxz     :     0.010545
      dyz     :     0.011617
      dx2y2   :     0.010425
      dxy     :     0.009046



                     *******************************
                     * LOEWDIN POPULATION ANALYSIS *
                     *******************************

----------------------
LOEWDIN ATOMIC CHARGES
----------------------
   0 B :   -0.000479
   1 B :    0.000278
   2 B :    0.000386
   3 B :   -0.000631
   4 B :    0.000382
   5 B :    0.000269
   6 B :    0.000319
   7 B :   -0.000695
   8 B :    0.000363
   9 B :    0.000194
  10 B :   -0.000549
  11 B :    0.000162

-------------------------------
LOEWDIN REDUCED ORBITAL CHARGES
-------------------------------
  0 B s       :     2.675160  s :     2.675160
      pz      :     0.791294  p :     2.182452
      px      :     0.523614
      py      :     0.867543
      dz2     :     0.040551  d :     0.142868
      dxz     :     0.016622
      dyz     :     0.034100
      dx2y2   :     0.021098
      dxy     :     0.030496

  1 B s       :     2.675327  s :     2.675327
      pz      :     0.791321  p :     2.181470
      px      :     0.781256
      py      :     0.608894
      dz2     :     0.040559  d :     0.142924
      dxz     :     0.029757
      dyz     :     0.021023
      dx2y2   :     0.028136
      dxy     :     0.023450

  2 B s       :     2.675354  s :     2.675354
      pz      :     0.791193  p :     2.181310
      px      :     0.781361
      py      :     0.608757
      dz2     :     0.040557  d :     0.142949
      dxz     :     0.029769
      dyz     :     0.021026
      dx2y2   :     0.028142
      dxy     :     0.023455

  3 B s       :     2.675118  s :     2.675118
      pz      :     0.791031  p :     2.182635
      px      :     0.524027
      py      :     0.867577
      dz2     :     0.040551  d :     0.142877
      dxz     :     0.016623
      dyz     :     0.034112
      dx2y2   :     0.021098
      dxy     :     0.030493

  4 B s       :     2.675366  s :     2.675366
      pz      :     0.791042  p :     2.181302
      px      :     0.781339
      py      :     0.608922
      dz2     :     0.040557  d :     0.142950
      dxz     :     0.029778
      dyz     :     0.021024
      dx2y2   :     0.028142
      dxy     :     0.023450

  5 B s       :     2.675341  s :     2.675341
      pz      :     0.791167  p :     2.181466
      px      :     0.781263
      py      :     0.609036
      dz2     :     0.040559  d :     0.142924
      dxz     :     0.029767
      dyz     :     0.021018
      dx2y2   :     0.028134
      dxy     :     0.023446

  6 B s       :     2.675287  s :     2.675287
      pz      :     0.791039  p :     2.181400
      px      :     0.608991
      py      :     0.781371
      dz2     :     0.040561  d :     0.142994
      dxz     :     0.021026
      dyz     :     0.029793
      dx2y2   :     0.028149
      dxy     :     0.023466

  7 B s       :     2.675061  s :     2.675061
      pz      :     0.791061  p :     2.182736
      px      :     0.867587
      py      :     0.524089
      dz2     :     0.040554  d :     0.142897
      dxz     :     0.034114
      dyz     :     0.016627
      dx2y2   :     0.021103
      dxy     :     0.030499

  8 B s       :     2.675335  s :     2.675335
      pz      :     0.791188  p :     2.181338
      px      :     0.608769
      py      :     0.781380
      dz2     :     0.040557  d :     0.142964
      dxz     :     0.021027
      dyz     :     0.029773
      dx2y2   :     0.028148
      dxy     :     0.023459

  9 B s       :     2.675296  s :     2.675296
      pz      :     0.791250  p :     2.181562
      px      :     0.608942
      py      :     0.781370
      dz2     :     0.040558  d :     0.142948
      dxz     :     0.021028
      dyz     :     0.029763
      dx2y2   :     0.028147
      dxy     :     0.023454

 10 B s       :     2.675118  s :     2.675118
      pz      :     0.791178  p :     2.182518
      px      :     0.867643
      py      :     0.523697
      dz2     :     0.040549  d :     0.142913
      dxz     :     0.034124
      dyz     :     0.016620
      dx2y2   :     0.021112
      dxy     :     0.030508

 11 B s       :     2.675250  s :     2.675250
      pz      :     0.791093  p :     2.181609
      px      :     0.609188
      py      :     0.781328
      dz2     :     0.040561  d :     0.142979
      dxz     :     0.021028
      dyz     :     0.029781
      dx2y2   :     0.028149
      dxy     :     0.023459



                      *****************************
                      * MAYER POPULATION ANALYSIS *
                      *****************************

  NA   - Mulliken gross atomic population
  ZA   - Total nuclear charge
  QA   - Mulliken gross atomic charge
  VA   - Mayer's total valence
  BVA  - Mayer's bonded valence
  FA   - Mayer's free valence

  ATOM       NA         ZA         QA         VA         BVA        FA
  0 B      4.9990     5.0000     0.0010     4.2258     4.2258    -0.0000
  1 B      5.0005     5.0000    -0.0005     4.2277     4.2277    -0.0000
  2 B      5.0013     5.0000    -0.0013     4.2286     4.2286    -0.0000
  3 B      4.9981     5.0000     0.0019     4.2248     4.2248     0.0000
  4 B      5.0013     5.0000    -0.0013     4.2286     4.2286    -0.0000
  5 B      5.0005     5.0000    -0.0005     4.2277     4.2277    -0.0000
  6 B      5.0011     5.0000    -0.0011     4.2289     4.2289    -0.0000
  7 B      4.9978     5.0000     0.0022     4.2248     4.2248     0.0000
  8 B      5.0012     5.0000    -0.0012     4.2288     4.2288     0.0000
  9 B      5.0002     5.0000    -0.0002     4.2276     4.2276     0.0000
 10 B      4.9989     5.0000     0.0011     4.2260     4.2260    -0.0000
 11 B      5.0001     5.0000    -0.0001     4.2277     4.2277    -0.0000

  Mayer bond orders larger than 0.100000
B(  0-B ,  1-B ) :   1.0030 B(  0-B ,  2-B ) :   0.1776 B(  0-B ,  4-B ) :   0.1776 
B(  0-B ,  5-B ) :   1.0031 B(  0-B ,  6-B ) :   0.7538 B(  0-B ,  7-B ) :   0.1194 
B(  0-B , 10-B ) :   0.1194 B(  0-B , 11-B ) :   0.7539 B(  1-B ,  2-B ) :   1.0027 
B(  1-B ,  3-B ) :   0.1771 B(  1-B ,  5-B ) :   0.1786 B(  1-B ,  6-B ) :   0.7545 
B(  1-B ,  7-B ) :   0.7540 B(  1-B ,  8-B ) :   0.1195 B(  1-B , 11-B ) :   0.1195 
B(  2-B ,  3-B ) :   1.0031 B(  2-B ,  4-B ) :   0.1793 B(  2-B ,  6-B ) :   0.1195 
B(  2-B ,  7-B ) :   0.7538 B(  2-B ,  8-B ) :   0.7546 B(  2-B ,  9-B ) :   0.1195 
B(  3-B ,  4-B ) :   1.0032 B(  3-B ,  5-B ) :   0.1771 B(  3-B ,  7-B ) :   0.1194 
B(  3-B ,  8-B ) :   0.7538 B(  3-B ,  9-B ) :   0.7539 B(  3-B , 10-B ) :   0.1194 
B(  4-B ,  5-B ) :   1.0026 B(  4-B ,  8-B ) :   0.1195 B(  4-B ,  9-B ) :   0.7547 
B(  4-B , 10-B ) :   0.7536 B(  4-B , 11-B ) :   0.1195 B(  5-B ,  6-B ) :   0.1195 
B(  5-B ,  9-B ) :   0.1195 B(  5-B , 10-B ) :   0.7539 B(  5-B , 11-B ) :   0.7546 
B(  6-B ,  7-B ) :   1.0030 B(  6-B ,  8-B ) :   0.1794 B(  6-B , 10-B ) :   0.1779 
B(  6-B , 11-B ) :   1.0025 B(  7-B ,  8-B ) :   1.0029 B(  7-B ,  9-B ) :   0.1772 
B(  7-B , 11-B ) :   0.1773 B(  8-B ,  9-B ) :   1.0026 B(  8-B , 10-B ) :   0.1778 
B(  9-B , 10-B ) :   1.0029 B(  9-B , 11-B ) :   0.1788 B( 10-B , 11-B ) :   1.0030 


-------
TIMINGS
-------

Total SCF time: 0 days 0 hours 0 min 3 sec 

Total time                  ....       3.673 sec
Sum of individual times     ....       3.322 sec  ( 90.5%)

SCF preparation             ....       0.593 sec  ( 16.2%)
Fock matrix formation       ....       2.327 sec  ( 63.4%)
  Startup                   ....       0.010 sec  (  0.4% of F)
  Split-RI-J                ....       0.833 sec  ( 35.8% of F)
  XC integration            ....       1.636 sec  ( 70.3% of F)
    XC Preparation          ....       0.000 sec  (  0.0% of XC)
    Basis function eval.    ....       0.405 sec  ( 24.7% of XC)
    Density eval.           ....       0.330 sec  ( 20.2% of XC)
    XC-Functional eval.     ....       0.043 sec  (  2.6% of XC)
    XC-Potential eval.      ....       0.396 sec  ( 24.2% of XC)
Diagonalization             ....       0.000 sec  (  0.0%)
Density matrix formation    ....       0.027 sec  (  0.7%)
Total Energy calculation    ....       0.028 sec  (  0.8%)
Population analysis         ....       0.125 sec  (  3.4%)
Orbital Transformation      ....       0.014 sec  (  0.4%)
Orbital Orthonormalization  ....       0.000 sec  (  0.0%)
DIIS solution               ....       0.018 sec  (  0.5%)
SOSCF solution              ....       0.190 sec  (  5.2%)
Finished LeanSCF after   3.8 sec

Maximum memory used throughout the entire LEANSCF-calculation: 11.9 MB


-------------------------------------------------------------------------------
                          DFT DISPERSION CORRECTION                            
                                                                               
                              DFTD3 V3.1  Rev 1                                
                          USING Becke-Johnson damping                          
-------------------------------------------------------------------------------
The BP86 functional is recognized
Active option DFTDOPT                   ...         4   

molecular C6(AA) [au] = 4067.201026 


            DFT-D V3
 parameters
 s6 scaling factor         :     1.0000 
 a1 scaling factor         :     0.3946 
 s8 scaling factor         :     3.2822 
 a2 scaling factor         :     4.8516 
 ad hoc parameters k1-k3   :    16.0000     1.3333    -4.0000 

 Edisp/kcal,au: -22.785120843299  -0.036310397459 
 E6   /kcal   :  -6.462181898 
 E8   /kcal   : -16.322938946 
 % E8         :  71.638588436 

-------------------------   ----------------
Dispersion correction           -0.036310397
-------------------------   ----------------


-------------------------   --------------------
FINAL SINGLE POINT ENERGY      -297.694545924663
-------------------------   --------------------

                                *** OPTIMIZATION RUN DONE ***



           ************************************************************
           *        Program running with 8 parallel MPI-processes     *
           *              working on a common directory               *
           ************************************************************

------------------------------------------------------------------------------
                              ORCA PROPERTY CALCULATIONS
------------------------------------------------------------------------------

GBWName                                 ... hex_antiprism_nn3.00.gbw
Number of atoms                         ...     12
Number of basis functions               ...    168
Max core memory                         ...   2500 MB

Electric properties:
Dipole moment                           ... YES
Quadrupole moment                       ...  NO
Static polarizability (Dipole/Dipole)   ...  NO
Static polarizability (Dipole/Quad.)    ...  NO
Static polarizability (Quad./Quad.)     ...  NO
Static polarizability (Velocity)        ...  NO
Static hyperpolarizability              ...  NO

Atomic electric properties:
Dipole moment                           ...  NO
Quadrupole moment                       ...  NO
Static polarizability                   ...  NO

Choice of electric origin               ... Center of mass
Position of electric origin             ...    -0.000000     0.000000    -0.000000

General magnetic properties:
Magnetizability                         ...  NO

EPR properties:
g-Tensor (aka g-matrix)                 ...  NO
Zero-Field splitting spin-orbit         ...  NO
Zero-field splitting spin-spin          ...  NO
Hyperfine couplings                     ...  NO (   0 nuclei)
Quadrupole couplings                    ...  NO (   0 nuclei)
Contact density                         ...  NO (   0 nuclei)

NMR properties:
Chemical shifts                         ...  NO (   0 nuclei)
Spin-rotation constants                 ...  NO (   0 nuclei)
Spin-spin couplings                     ...  NO (   0 nuclei,    0 pairs)

Choice of magnetic origin               ... GIAO
Position of magnetic origin             ...     0.000000     0.000000     0.000000

Properties with geometric perturbations:
SCF Hessian                             ...  NO
IR spectrum                             ...  NO
VCD spectrum                            ...  NO
X-ray spectroscopy properties:
SCF XES/XAS/RIXS spectra                ...  NO

SCF SOC stabilization energy            ...  NO
Diagonal Born-Oppenheimer correction    ...  NO

-------------
DIPOLE MOMENT
-------------

Method             : SCF
Type of density    : Electron Density
Multiplicity       :   1
Irrep              :   0
Energy             :  -297.6582355272037148 Eh
Basis              : AO
                                X                 Y                 Z
Electronic contribution:     -0.000008426       0.000126895      -0.000214764
Nuclear contribution   :     -0.000000000       0.000000000       0.000000000
                        -----------------------------------------
Total Dipole Moment    :     -0.000008426       0.000126895      -0.000214764
                        -----------------------------------------
Magnitude (a.u.)       :      0.000249593
Magnitude (Debye)      :      0.000634416



--------------------
Rotational spectrum 
--------------------
 
Rotational constants in cm-1:             0.068518             0.068517             0.048303 
Rotational constants in MHz :          2054.129886          2054.102326          1448.092914 

Dipole components along the rotational axes: 
x,y,z [a.u.] :    -0.000001    -0.000127    -0.000215 
x,y,z [Debye]:    -0.000003    -0.000323    -0.000546 

 

Dipole moment calculation done in   0.0 sec 

Maximum memory used throughout the entire PROP-calculation: 9.5 MB

--------------------------------
SUGGESTED CITATIONS FOR THIS RUN
--------------------------------

Below you find a list of papers that are relevant to this ORCA run
We neither can nor want to force you to cite these papers, but we appreciate if you do
You receive ORCA, which is the product of decades of hard work by many enthusiastic individuals, for free
The only thing we kindly ask in return is that you cite our papers,
We deeply appreciate it, if you show your appreciation for ORCA by not just citing the generic ORCA reference.

Please note that relegating all ORCA citations to the supporting information does *not* help us.
SI sections are not indexed - citations you put there will not count into any citation statistics
But we need these citations in order to attract the funding resources that allow us to do what we are doing

Therefore, if you are a happy ORCA user, please consider citing a few of the papers listed below in the main body of your paper

In addition to the list printed below, the program has created the file hex_antiprism_nn3.00.bibtex that contains the list in bibtex format
You can import this file easily into all common literature databanks and citation aid programs

It goes without saying that in many instances, there are alternative algorithms to achieve similar
results as the ones you have gotten from ORCA. It is, of course, also the case that in some instances
ORCA just re-implements algorithms worked out by others. We are fully aware of that and we are also
fully appreciative of our colleagues work. Hence this citation list should not be read as indicating
that the listed papers, which are focused on our own work, are the only ones worth citing. It simply
meant to make it easier for users to cite ORCA specific papers. It is not a substitute for doing your
own literature research and citing the relevant literature in a scientifically appropriate manner.

List of essential papers. We consider these as the minimum necessary citations

  1. Neese, F.
     Software update: the ORCA program system, version 6.0
     WIRES Comput. Molec. Sci. 2025 15(1), e70019
     doi.org/10.1002/wcms.70019

List of papers to cite with high priority. The work reported in these papers was absolutely
necessary for this run to complete.
Our perspective: the developers of density functionals and basis sets usually get cited in chemistry papers
Good! But without the algorithms to do something with them, the functionals or basis sets would not do anything.
Hence, in our opinion, the algorithm design and method developments papers are equally worthy of getting cited

  1. Neese, F.
     An improvement of the resolution of the identity approximation for the formation of the Coulomb matrix
     J. Comp. Chem. 2003 24(14), 1740-1747
     doi.org/10.1002/jcc.10318
  2. Grimme, S.; Antony, J.; Ehrlich, S.; Krieg, H.
     A consistent and accurate ab initio parametrization of density functional dispersion correction (DFT-D) for the 94 elements H-Pu
     J. Chem. Phys. 2010 132 , 154104
     doi.org/10.1063/1.3382344
  3. Grimme, S.; Ehrlich, S.; Goerigk, L.
     Effect of the damping function in dispersion corrected density functional theory
     J. Comput. Chem. 2011 32(7), 1456-1465
     doi.org/10.1002/jcc.21759
  4. Helmich-Paris, B.
     A trust-region augmented Hessian implementation for restricted and unrestricted Hartree–Fock and Kohn–Sham methods
     J. Chem. Phys. 2021 154 , 164104
     doi.org/10.1063/5.0040798
  5. Neese, F.
     The SHARK Integral Generation and Digestion System
     J. Comp. Chem. 2022 44(3), 381
     doi.org/10.1002/jcc.26942

List of suggested additional citations. These are papers that are important in the 'surrounding' of 
of this run, or papers that preceded the highly important papers. If you like your results we are grateful for a citation.

  1. Neese, F.
     The ORCA program system
     WIRES Comput. Molec. Sci. 2012 2(1), 73-78
     doi.org/10.1002/wcms.81
  2. Neese, F.
     Software update: the ORCA program system, version 4.0
     WIRES Comput. Molec. Sci. 2018 8(1), 1-6
     doi.org/10.1002/wcms.1327
  3. Neese, F.; Wennmohs, F.; Becker, U.; Riplinger, C.
     The ORCA quantum chemistry program package
     J. Chem. Phys. 2020 152(22), 224108
     doi.org/10.1063/5.0004608
  4. Neese, F.
     Software update: The ORCA program system—Version 5.0
     WIRES Comput. Molec. Sci. 2022 12(1), e1606
     doi.org/10.1002/wcms.1606

List of optional additional citations

  1. Neese, F.
     Approximate second-order SCF convergence for spin unrestricted wavefunctions
     Chem. Phys. Lett. 2000 325(1-3), 93-98
     doi.org/10.1016/s0009-2614(00)00662-x

Timings for individual modules:

Sum of individual times          ...      559.117 sec (=   9.319 min)
Startup calculation              ...       73.531 sec (=   1.226 min)  13.2 %
SCF iterations                   ...      388.591 sec (=   6.477 min)  69.5 %
Property calculations            ...        0.682 sec (=   0.011 min)   0.1 %
SCF Gradient evaluation          ...       95.463 sec (=   1.591 min)  17.1 %
Geometry relaxation              ...        0.851 sec (=   0.014 min)   0.2 %
                             ****ORCA TERMINATED NORMALLY****
TOTAL RUN TIME: 0 days 0 hours 9 minutes 52 seconds 232 msec
