
                                 *****************
                                 * O   R   C   A *
                                 *****************

                                            #,                                       
                                            ###                                      
                                            ####                                     
                                            #####                                    
                                            ######                                   
                                           ########,                                 
                                     ,,################,,,,,                         
                               ,,#################################,,                 
                          ,,##########################################,,             
                       ,#########################################, ''#####,          
                    ,#############################################,,   '####,        
                  ,##################################################,,,,####,       
                ,###########''''           ''''###############################       
              ,#####''   ,,,,##########,,,,          '''####'''          '####       
            ,##' ,,,,###########################,,,                        '##       
           ' ,,###''''                  '''############,,,                           
         ,,##''                                '''############,,,,        ,,,,,,###''
      ,#''                                            '''#######################'''  
     '                                                          ''''####''''         
             ,#######,   #######,   ,#######,      ##                                
            ,#'     '#,  ##    ##  ,#'     '#,    #''#        ,####,    ,#,          
            ##       ##  ##   ,#'  ##            #'  '#       #'       ,# #          
            ##       ##  #######   ##           ,######,      #####,      #          
            '#,     ,#'  ##    ##  '#,     ,#' ,#      #,     #,   #      #          
             '#######'   ##     ##  '#######'  #'      '#     '####' #    #          



                #########################################################
                #                        -***-                          #
                #          Department of theory and spectroscopy        #
                #                                                       #
                #                      Frank Neese                      #
                #                                                       #
                #     Directorship, Architecture, Infrastructure        #
                #                    SHARK, DRIVERS                     #
                #        Core code/Algorithms in most modules           #
                #                                                       #
                #        Max Planck Institute fuer Kohlenforschung      #
                #                Kaiser Wilhelm Platz 1                 #
                #                 D-45470 Muelheim/Ruhr                 #
                #                      Germany                          #
                #                                                       #
                #                  All rights reserved                  #
                #                        -***-                          #
                #########################################################


                         Program Version 6.1.1  -  RELEASE   -
                                (GIT: $487d211c$)
                          ($2025-11-21 10:33:24 +0100$)
                                                                         
                                  - NO-DMRG VERSION -                    
                                                                         


 With contributions from (in alphabetic order):
[Max-Planck-Institut fuer Kohlenforschung]                               
  Daniel Aravena         : Magnetic Suceptibility                        
  Michael Atanasov       : Ab Initio Ligand Field Theory (pilot matlab implementation)
  Alexander A. Auer      : GIAO ZORA, VPT2 properties, NMR spectrum      
  Ute Becker             : All parallelization in ORCA, NUMFREQ, NUMCALC 
  Giovanni Bistoni       : ED, misc. LED, open-shell LED, HFLD           
  Dmytro Bykov           : pre 5.0 version of the SCF Hessian            
  Marcos Casanova-Páez   : Triplet and SCS-CIS(D). UHF-(DLPNO)-IP/EA/STEOM-CCSD. UHF-CVS-IP/STEOM-CCSD   
  Vijay G. Chilkuri      : MRCI spin determinant printing, contributions to CSF-ICE 
  Pauline Colinet        : FMM embedding                                 
  Dipayan Datta          : RHF DLPNO-CCSD density                        
  Achintya Kumar Dutta   : EOM-CC, STEOM-CC                              
  Nicolas Foglia         : Exact transition moments, OPA infrastructure, MCD improvements    
  Dmitry Ganyushin       : Spin-Orbit,Spin-Spin,Magnetic field MRCI      
  Miquel Garcia-Rates    : C-PCM and meta-GGA Hessian, CCSD/C-PCM, Gaussian charge scheme 
  Tiago L. C. Gouveia    : GS-ROHF, GS-ROCIS                             
  Yang Guo               : DLPNO-NEVPT2, F12-NEVPT2, CIM, IAO-localization        
  Andreas Hansen         : Spin unrestricted coupled pair/coupled cluster methods 
  Ingolf Harden          : AUTO-CI MPn and infrastructure                
  Benjamin Helmich-Paris : MC-RPA, TRAH-(SCF,CASSCF), AVAS, COSX integrals, SCF dyn. polar., MC-PDFT, srDFT 
  Lee Huntington         : MR-EOM, pCC                                   
  Robert Izsak           : Overlap fitted RIJCOSX, COSX-SCS-MP3, EOM     
  Riya Kayal             : Wick's Theorem for AUTO-CI, AUTO-CI UHF-CCSDT 
  Emily Kempfer          : AUTO-CI RHF CISDT and CCSDT, approximate NEVPT4
  Christian Kollmar      : KDIIS, OOCD, Brueckner-CCSD(T), CCSD density, CASPT2, CASPT2-K, improved NEVPT2 
  Axel Koslowski         : Symmetry handling                             
  Simone Kossmann        : meta-GGA functionals, TD-DFT gradient, OOMP2, (MP2 Hessian; deprecated post 5.0) 
  Lucas Lang             : DCDCAS, Hyperfine gauge corrections, ICE-SOC+SSC
  Marvin Lechner         : AUTO-CI (C++ implementation), FIC-MRCC        
  Spencer Leger          : CASSCF response                               
  Dagmar Lenk            : GEPOL surface, SMD, ORCA-2-JSON               
  Dimitrios Liakos       : Extrapolation schemes; Compound Job, Property file
  Dimitrios Manganas     : Further ROCIS development; embedding schemes. LFT, Crystal Embedding 
  Dimitrios Pantazis     : SARC Basis sets                               
  Anastasios Papadopoulos: AUTO-CI, single reference methods and gradients 
  Taras Petrenko         : pre 6.0 DFT Hessian and TD-DFT gradient,  ECA, NRVS 
  Petra Pikulova         : Analytic Raman intensities                    
  Peter Pinski           : DLPNO-MP2, DLPNO-MP2 Gradient                 
  Shashank Vittal Rao    : ES-AILFT, MagRelax                            
  Christoph Reimann      : Effective Core Potentials                     
  Marius Retegan         : Local ZFS, SOC                                
  Christoph Riplinger    : Optimizer, TS searches, QM/MM, DLPNO-CCSD(T), (RO)-DLPNO pert. Triples 
  Michael Roemelt        : Original ROCIS implementation, recursive CI coupling coefficients
  Masaaki Saitow         : Open-shell DLPNO-CCSD energy and density      
  Barbara Sandhoefer     : DKH picture change effects                    
  Yorick L. A. Schmerwitz: GMF and freeze-and-release deltaSCF, NEB S-IDPP initial path                    
  Kantharuban Sivalingam : CASSCF convergence/infrastructure, NEVPT2, NEVPT3, NEVPT4(SD), FIC-MRCI and CEPA variants
  Bernardo de Souza      : ESD, SOC TD-DFT                               
  Georgi L. Stoychev     : AutoAux, RI-MP2 NMR, DLPNO-MP2 response, X2C  
  Van Anh Tran           : RI-MP2 g-tensors                              
  Willem Van den Heuvel  : Paramagnetic NMR                              
  Zikuan Wang            : NOTCH, Electric field optimization            
  Frank Wennmohs         : Technical directorship and infrastructure     
  Hang Xu                : AUTO-CI-Response properties                   
                                                                         
[FACCTs GmbH]                                                            
  Markus Bursch, Nicolas Foglia, Miquel Garcia-Rates, Ingolf Harden, Hagen Neugebauer, Anastasios Papadopoulos, 
  Christoph Riplinger, Bernardo de Souza, Georgi L. Stoychev                                                    
                                                                 
  APM, various basis sets, CI-OPT, improved COSX, DLPNO-Multilevel,           
  DOCKER, DRACO, updates on ESD, Fragmentator, GOAT, IRC, LR-CPCM, L-BFGS, MBIS, meta-GGA TD-DFT gradient, ML-optimized integration grids, 
  MM, NACMEs, nearIR, NEB, NEB-TS, NL-DFT gradient (VV10), 2- and 3-layer-ONIOM, interface openCOSMO-RS, QMMM,   
  Crystal-QMMM, RESP, rigid body optimization, SF, symmetry and pop. for TD-DFT, various functionals, SOLVATOR                                   
                                                                         
[Other institutions]                                                     
  V. Asgeirsson          : NEB                                           
  Christoph Bannwarth    : sTDA-DFT, sTD-DFT, PBEh-3c, B97-3c, D3        
  Giovanni Bistoni       : ETS/NOCV, ADLD/ADEX, COVALED                  
  Martin Brehm           : Molecular dynamics                            
  Ronald Cardenas        : ETS/NOCV                                      
  Martina Colucci        : COVALED                                       
  Sebastian Ehlert       : rSCAN, r2SCAN, r2SCAN-3c, D4, dhf basis sets  
  Marvin Friede          : D4 for Fr, Ra, Ac-Lr                          
  Lars Goerigk           : TD-DFT with DH, B97 family of functionals     
  Stefan Grimme          : VdW corrections, initial TS optimization, DFT functionals, gCP, sTDA/sTD-DF 
  Waldemar Hujo          : DFT-NL                                        
  H. Jonsson             : NEB                                           
  Holger Kruse           : gCP                                           
  Marcel Mueller         : wB97X-3c, vDZP basis set                      
  Hagen Neugebauer       : wr2SCAN, Native XTB                           
  Gianluca Regni         : ADLD/ADEX                                     
  Tobias Risthaus        : pre 6.0 range-separated hybrid DFT and stability analysis
  Lukas Wittmann         : regularized MP2, r2SCAN double-hybrids, wr2SCAN        
                                                                         
We gratefully acknowledge several colleagues who have allowed us to      
interface, adapt or use parts of their codes:                            
  Ed Valeev, F. Pavosevic, A. Kumar             : LibInt (2-el integral package), F12 methods 
  Garnet Chan, S. Sharma, J. Yang, R. Olivares  : DMRG                   
  Ulf Ekstrom                                   : XCFun DFT Library      
  Mihaly Kallay                                 : mrcc  (arbitrary order and MRCC methods)
  Frank Weinhold                                : gennbo (NPA and NBO analysis)           
  Simon Mueller                                 : openCOSMO-RS                            
  Christopher J. Cramer and Donald G. Truhlar   : smd solvation model                     
  S Lehtola, MJT Oliveira, MAL Marques          : LibXC Library                           
  Liviu Ungur et al                             : ANISO software                          


 Your calculation uses the libint2 library for the computation of 2-el integrals
 For citations please refer to: http://libint.valeyev.net

 Your ORCA version has been built with support for libXC version: 7.0.0
 For citations please refer to: https://libxc.gitlab.io

 This ORCA versions uses:
   CBLAS   interface :  Fast vector & matrix operations
   LAPACKE interface :  Fast linear algebra routines
   SCALAPACK package :  Parallel linear algebra routines
   Shared memory     :  Shared parallel matrices
   BLAS/LAPACK       :  OpenBLAS 0.3.29  USE64BITINT DYNAMIC_ARCH NO_AFFINITY Zen SINGLE_THREADED
        Core in use  :  Zen
   Copyright (c) 2011-2014, The OpenBLAS Project


  ***********************************
  * Starting time: Thu Apr 23 19:09:30 2026
  * Host name:     vmi3233575
  * Process ID:    1422033
  * Working dir.:  /root/b12_scan/jobs/quasi_planar_nn1.70_perturb1
  ***********************************

NOTE: MaxCore=2500 MB was set to SCF,MP2,MDCI,CIPSI,MRCI,RASCI and CIS
      => If you want to overwrite this, your respective input block should be placed after the MaxCore statement
Your calculation utilizes the atom-pairwise dispersion correction
with the Becke-Johnson damping scheme (D3BJ)


================================================================================

----- Orbital basis set information -----
Your calculation utilizes the basis: def2-SVP
   F. Weigend and R. Ahlrichs, Phys. Chem. Chem. Phys. 7, 3297 (2005).

----- AuxJ basis set information -----
Your calculation utilizes the auxiliary basis: def2/J
   H-Rn: F. Weigend, Phys. Chem. Chem. Phys. 8, 1057 (2006).
   Fr-Lr: K. Eichkorn, F. Weigend, O. Treutler, R. Ahlrichs; Theor. Chem. Acc. 97, 119 (1997).

================================================================================
                                        WARNINGS
                       Please study these warnings very carefully!
================================================================================


WARNING: Geometry Optimization
  ===> : Switching off AutoStart
         For restart on a previous wavefunction, please use MOREAD

================================================================================
                                       INPUT FILE
================================================================================
NAME = quasi_planar_nn1.70_perturb1.inp
|  1> ! BP86 def2-SVP def2/J RI Opt TightSCF D3BJ
|  2> ! SlowConv
|  3> 
|  4> %pal nprocs 8 end
|  5> %maxcore 2500
|  6> 
|  7> %geom
|  8>   MaxIter 300
|  9> end
| 10> 
| 11> * xyz 0 1
| 12> B      1.03333309      0.12324272      0.31724614
| 13> B     -0.68622131      0.98580338      0.33463677
| 14> B     -0.57129071     -0.76283228      0.32236644
| 15> B      3.15145827      0.31603712     -0.00721991
| 16> B      2.06948688      2.21175470     -0.16154476
| 17> B      0.32237335      3.12022821     -0.13309537
| 18> B     -1.94095948      2.49656827     -0.08800553
| 19> B     -3.06791631      0.96391038      0.06178179
| 20> B     -3.21998442     -1.63909583     -0.11544267
| 21> B     -1.34699375     -2.81487443     -0.05662857
| 22> B      1.16429670     -3.17279511     -0.14586761
| 23> B      2.88717938     -1.66152060      0.01023265
| 24> *
| 25> 
| 26>                          ****END OF INPUT****
================================================================================

                       *****************************
                       * Geometry Optimization Run *
                       *****************************

Geometry optimization settings:
Update method            Update   .... BFGS
Choice of coordinates    CoordSys .... (2022) Redundant Internals
Initial Hessian          InHess   .... Almloef's Model
Max. no of cycles        MaxIter  .... 300

Convergence Tolerances:
Energy Change            TolE     ....  5.0000e-06 Eh
Max. Gradient            TolMAXG  ....  3.0000e-04 Eh/bohr
RMS Gradient             TolRMSG  ....  1.0000e-04 Eh/bohr
Max. Displacement        TolMAXD  ....  4.0000e-03 bohr
RMS Displacement         TolRMSD  ....  2.0000e-03 bohr
Strict Convergence                .... False

------------------------------------------------------------------------------
                        ORCA OPTIMIZATION COORDINATE SETUP
------------------------------------------------------------------------------

The optimization will be done in redundant internal coordinates (2022)
Making redundant internal coordinates   ...  (2022 redundants) done
Evaluating the initial hessian          ...  (Almloef) done
Evaluating the coordinates              ...  done
Calculating the B-matrix                .... done
Calculating the G-matrix                .... done
The number of degrees of freedom        ....  146

    -----------------------------------------------------------------
                    Redundant Internal Coordinates


    -----------------------------------------------------------------
         Definition                    Initial Value    Approx d2E/dq
    -----------------------------------------------------------------
      1. B(B   1,B   0)                  1.9238         0.117939   
      2. B(B   2,B   1)                  1.7525         0.221363   
      3. B(B   2,B   0)                  1.8330         0.164649   
      4. B(B   3,B   0)                  2.1515         0.051105   
      5. B(B   4,B   0)                  2.3801         0.022069   
      6. B(B   4,B   3)                  2.1882         0.044658   
      7. B(B   5,B   1)                  2.4066         0.020018   
      8. B(B   5,B   4)                  1.9694         0.099765   
      9. B(B   6,B   5)                  2.3481         0.024817   
     10. B(B   6,B   1)                  2.0088         0.086311   
     11. B(B   7,B   6)                  1.9083         0.124882   
     12. B(B   8,B   2)                  2.8240         0.010000   
     13. B(B   8,B   7)                  2.6135         0.010000   
     14. B(B   9,B   8)                  2.2122         0.040883   
     15. B(B   9,B   2)                  2.2263         0.038831   
     16. B(B  10,B   9)                  2.5382         0.012343   
     17. B(B  11,B   3)                  1.9952         0.090739   
     18. B(B  11,B  10)                  2.2971         0.029934   
     19. B(B  11,B   0)                  2.5916         0.010146   
     20. A(B   2,B   0,B  11)          107.0752         0.194144   
     21. A(B   2,B   0,B   3)          154.8990         0.240605   
     22. A(B   2,B   0,B   4)          143.6917         0.214363   
     23. A(B   1,B   0,B   3)          147.2604         0.229577   
     24. A(B   1,B   0,B  11)          161.6604         0.186496   
     25. A(B   4,B   0,B  11)          105.6085         0.155718   
     26. A(B   1,B   0,B   2)           55.5467         0.272196   
     27. A(B   3,B   0,B   4)           57.4819         0.185199   
     28. A(B   1,B   0,B   4)           89.8571         0.205245   
     29. A(B   3,B   0,B  11)           48.6703         0.169684   
     30. A(B   2,B   1,B   5)          148.8838         0.220123   
     31. A(B   0,B   1,B   5)           91.2203         0.202707   
     32. A(B   2,B   1,B   6)          142.1775         0.271525   
     33. A(B   0,B   1,B   2)           59.5984         0.284889   
     34. A(B   0,B   1,B   6)          153.3255         0.247281   
     35. A(B   5,B   1,B   6)           63.5048         0.194949   
     36. A(B   0,B   2,B   9)          138.5999         0.231466   
     37. A(B   0,B   2,B   1)           64.8549         0.300255   
     38. A(B   8,B   2,B   9)           50.2677         0.151497   
     39. A(B   1,B   2,B   8)          104.4295         0.181673   
     40. A(B   0,B   2,B   8)          166.0743         0.175667   
     41. A(B   1,B   2,B   9)          153.9066         0.241337   
     42. A(B   4,B   3,B  11)          142.5413         0.217495   
     43. A(B   0,B   3,B  11)           77.2593         0.221478   
     44. A(B   0,B   3,B   4)           66.5142         0.201838   
     45. A(B   3,B   4,B   5)          146.8524         0.220283   
     46. A(B   0,B   4,B   3)           56.0038         0.182307   
     47. A(B   0,B   4,B   5)           90.8980         0.200924   
     48. A(B   1,B   5,B   6)           49.9653         0.168906   
     49. A(B   1,B   5,B   4)           88.0215         0.198480   
     50. A(B   4,B   5,B   6)          137.1263         0.203937   
     51. A(B   1,B   6,B   7)           75.4236         0.249344   
     52. A(B   5,B   6,B   7)          141.6345         0.209930   
     53. A(B   1,B   6,B   5)           66.5299         0.200230   
     54. A(B   6,B   7,B   8)          145.9953         0.185988   
     55. A(B   2,B   8,B   7)           68.0291         0.134293   
     56. A(B   2,B   8,B   9)           50.7066         0.152229   
     57. A(B   7,B   8,B   9)          118.5741         0.164327   
     58. A(B   8,B   9,B  10)          155.7374         0.169189   
     59. A(B   2,B   9,B  10)           77.9496         0.168260   
     60. A(B   2,B   9,B   8)           79.0257         0.192938   
     61. A(B   9,B  10,B  11)          130.3085         0.163727   
     62. A(B   0,B  11,B   3)           54.0703         0.180879   
     63. A(B   0,B  11,B  10)           85.6768         0.160484   
     64. A(B   3,B  11,B  10)          138.6629         0.206372   
     65. D(B   2,B   1,B   0,B  11)     20.2798         0.010000   
     66. D(B   6,B   1,B   0,B   2)   -150.7166         0.010000   
     67. D(B   6,B   1,B   0,B   4)     17.5151         0.010000   
     68. D(B   2,B   1,B   0,B   4)    168.2317         0.010000   
     69. D(B   2,B   1,B   0,B   3)    164.4834         0.010000   
     70. D(B   6,B   1,B   0,B   3)     13.7668         0.010000   
     71. D(B   6,B   1,B   0,B  11)   -130.4368         0.010000   
     72. D(B   9,B   2,B   0,B   4)    145.2654         0.010000   
     73. D(B   9,B   2,B   0,B   3)      5.3539         0.010000   
     74. D(B   8,B   2,B   1,B   0)   -170.5277         0.010000   
     75. D(B   9,B   2,B   0,B  11)     -8.0360         0.010000   
     76. D(B   0,B   2,B   1,B   6)    159.0176         0.010000   
     77. D(B   9,B   2,B   0,B   1)    165.4130         0.010000   
     78. D(B   9,B   2,B   1,B   5)   -135.3027         0.010000   
     79. D(B   1,B   2,B   0,B   3)   -160.0590         0.010000   
     80. D(B   1,B   2,B   0,B   4)    -20.1476         0.010000   
     81. D(B   1,B   2,B   0,B  11)   -173.4490         0.010000   
     82. D(B   9,B   2,B   1,B   6)      1.2688         0.010000   
     83. D(B   9,B   2,B   1,B   0)   -157.7488         0.010000   
     84. D(B   0,B   2,B   1,B   5)     22.4461         0.010000   
     85. D(B   4,B   3,B   0,B  11)    170.2597         0.010000   
     86. D(B   4,B   3,B   0,B   2)    153.1143         0.010000   
     87. D(B   4,B   3,B   0,B   1)      4.4466         0.010000   
     88. D(B  11,B   3,B   0,B   4)   -170.2597         0.010000   
     89. D(B  11,B   3,B   0,B   2)    -17.1453         0.010000   
     90. D(B  11,B   3,B   0,B   1)   -165.8131         0.010000   
     91. D(B   3,B   4,B   0,B   1)   -177.5969         0.010000   
     92. D(B   5,B   4,B   0,B   3)    178.0684         0.010000   
     93. D(B   5,B   4,B   0,B   2)     16.9718         0.010000   
     94. D(B   5,B   4,B   0,B  11)    170.4885         0.010000   
     95. D(B   5,B   4,B   0,B   1)      0.4714         0.010000   
     96. D(B   0,B   4,B   3,B  11)     15.7432         0.010000   
     97. D(B   5,B   4,B   3,B   0)     -3.5338         0.010000   
     98. D(B   5,B   4,B   3,B  11)     12.2094         0.010000   
     99. D(B   3,B   4,B   0,B   2)   -161.0965         0.010000   
    100. D(B   1,B   5,B   4,B   0)     -0.3771         0.010000   
    101. D(B   6,B   5,B   4,B   0)    -10.8955         0.010000   
    102. D(B   6,B   5,B   4,B   3)     -7.9659         0.010000   
    103. D(B   6,B   5,B   1,B   2)    151.8991         0.010000   
    104. D(B   6,B   5,B   1,B   0)    171.1308         0.010000   
    105. D(B   4,B   5,B   1,B   6)   -170.6642         0.010000   
    106. D(B   1,B   5,B   4,B   3)      2.5525         0.010000   
    107. D(B   4,B   5,B   1,B   2)    -18.7651         0.010000   
    108. D(B   4,B   5,B   1,B   0)      0.4666         0.010000   
    109. D(B   7,B   6,B   5,B   1)     -7.8864         0.010000   
    110. D(B   7,B   6,B   5,B   4)      5.8988         0.010000   
    111. D(B   1,B   6,B   5,B   4)     13.7852         0.010000   
    112. D(B   5,B   6,B   1,B   2)   -156.6125         0.010000   
    113. D(B   5,B   6,B   1,B   0)    -20.0821         0.010000   
    114. D(B   7,B   6,B   1,B   5)    174.9517         0.010000   
    115. D(B   7,B   6,B   1,B   2)     18.3392         0.010000   
    116. D(B   7,B   6,B   1,B   0)    154.8696         0.010000   
    117. D(B   8,B   7,B   6,B   5)    -17.7124         0.010000   
    118. D(B   8,B   7,B   6,B   1)    -25.1845         0.010000   
    119. D(B   2,B   8,B   7,B   6)     22.0265         0.010000   
    120. D(B   9,B   8,B   7,B   6)     17.8331         0.010000   
    121. D(B   7,B   8,B   2,B   9)   -175.2404         0.010000   
    122. D(B   7,B   8,B   2,B   1)     -2.5080         0.010000   
    123. D(B   7,B   8,B   2,B   0)    -40.7528         0.010000   
    124. D(B   9,B   8,B   2,B   1)    172.7324         0.010000   
    125. D(B   9,B   8,B   2,B   0)    134.4876         0.010000   
    126. D(B   8,B   9,B   2,B   1)    -16.1734         0.010000   
    127. D(B   8,B   9,B   2,B   0)   -164.9526         0.010000   
    128. D(B  10,B   9,B   8,B   2)    -18.6036         0.010000   
    129. D(B  10,B   9,B   8,B   7)    -13.5768         0.010000   
    130. D(B   2,B   9,B   8,B   7)      5.0268         0.010000   
    131. D(B  10,B   9,B   2,B   8)    172.2966         0.010000   
    132. D(B  10,B   9,B   2,B   1)    156.1232         0.010000   
    133. D(B  10,B   9,B   2,B   0)      7.3440         0.010000   
    134. D(B  11,B  10,B   9,B   8)     15.0443         0.010000   
    135. D(B  11,B  10,B   9,B   2)     -3.6332         0.010000   
    136. D(B   0,B  11,B  10,B   9)      1.1670         0.010000   
    137. D(B   3,B  11,B  10,B   9)    -11.1732         0.010000   
    138. D(B  10,B  11,B   3,B   4)      0.4776         0.010000   
    139. D(B  10,B  11,B   3,B   0)     15.2590         0.010000   
    140. D(B   0,B  11,B   3,B   4)    -14.7814         0.010000   
    141. D(B  10,B  11,B   0,B   3)   -169.9606         0.010000   
    142. D(B  10,B  11,B   0,B   2)      2.5222         0.010000   
    143. D(B  10,B  11,B   0,B   1)    -14.8745         0.010000   
    144. D(B   3,B  11,B   0,B   4)      8.5181         0.010000   
    145. D(B   3,B  11,B   0,B   2)    172.4828         0.010000   
    146. D(B   3,B  11,B   0,B   1)    155.0861         0.010000   
    -----------------------------------------------------------------

Number of atoms                         .... 12
Number of degrees of freedom            .... 146


         *************************************************************
         *                GEOMETRY OPTIMIZATION CYCLE   1            *
         *************************************************************
---------------------------------
CARTESIAN COORDINATES (ANGSTROEM)
---------------------------------
  B      1.033333    0.123243    0.317246
  B     -0.686221    0.985803    0.334637
  B     -0.571291   -0.762832    0.322366
  B      3.151458    0.316037   -0.007220
  B      2.069487    2.211755   -0.161545
  B      0.322373    3.120228   -0.133095
  B     -1.940959    2.496568   -0.088006
  B     -3.067916    0.963910    0.061782
  B     -3.219984   -1.639096   -0.115443
  B     -1.346994   -2.814874   -0.056629
  B      1.164297   -3.172795   -0.145868
  B      2.887179   -1.661521    0.010233

----------------------------
CARTESIAN COORDINATES (A.U.)
----------------------------
  NO LB      ZA    FRAG     MASS         X           Y           Z
   0 B     5.0000    0    10.810    1.952717    0.232895    0.599508
   1 B     5.0000    0    10.810   -1.296770    1.862898    0.632372
   2 B     5.0000    0    10.810   -1.079583   -1.441544    0.609184
   3 B     5.0000    0    10.810    5.955393    0.597224   -0.013644
   4 B     5.0000    0    10.810    3.910763    4.179611   -0.305275
   5 B     5.0000    0    10.810    0.609197    5.896377   -0.251514
   6 B     5.0000    0    10.810   -3.667882    4.717830   -0.166306
   7 B     5.0000    0    10.810   -5.797522    1.821527    0.116751
   8 B     5.0000    0    10.810   -6.084889   -3.097442   -0.218155
   9 B     5.0000    0    10.810   -2.545449   -5.319342   -0.107012
  10 B     5.0000    0    10.810    2.200202   -5.995714   -0.275650
  11 B     5.0000    0    10.810    5.455978   -3.139819    0.019337

--------------------------------
INTERNAL COORDINATES (ANGSTROEM)
--------------------------------
 B      0   0   0     0.000000000000     0.00000000     0.00000000
 B      1   0   0     1.923845279837     0.00000000     0.00000000
 B      2   1   0     1.752451504390    59.59838723     0.00000000
 B      1   2   3     2.151488363070   147.26041200   164.48336606
 B      4   1   2     2.188200948548    66.51423048     4.44655616
 B      5   4   1     1.969400714144   146.85239217   356.46621049
 B      2   1   3     2.008831735577   153.32545243   209.28342164
 B      7   2   1     1.908273603469    75.42357410   154.86964311
 B      8   7   2     2.613460263444   145.99532292   334.81552125
 B      9   8   7     2.212240598236   118.57412509    17.83314827
 B     10   9   8     2.538237684633   155.73736265   346.42316430
 B      4   1   2     1.995214890552    77.25934971   194.18689368

---------------------------
INTERNAL COORDINATES (A.U.)
---------------------------
 B      0   0   0     0.000000000000     0.00000000     0.00000000
 B      1   0   0     3.635540702929     0.00000000     0.00000000
 B      2   1   0     3.311653406275    59.59838723     0.00000000
 B      1   2   3     4.065723786520   147.26041200   164.48336606
 B      4   1   2     4.135100518743    66.51423048     4.44655616
 B      5   4   1     3.721627997682   146.85239217   356.46621049
 B      2   1   3     3.796141829370   153.32545243   209.28342164
 B      7   2   1     3.606114499147    75.42357410   154.86964311
 B      8   7   2     4.938724159795   145.99532292   334.81552125
 B      9   8   7     4.180528873008   118.57412509    17.83314827
 B     10   9   8     4.796574086755   155.73736265   346.42316430
 B      4   1   2     3.770409721466    77.25934971   194.18689368

---------------------
BASIS SET INFORMATION
---------------------
There are 1 groups of distinct atoms

 Group   1 Type B   : 7s4p1d contracted to 3s2p1d pattern {511/31/1}

Atom   0B    basis set group =>   1
Atom   1B    basis set group =>   1
Atom   2B    basis set group =>   1
Atom   3B    basis set group =>   1
Atom   4B    basis set group =>   1
Atom   5B    basis set group =>   1
Atom   6B    basis set group =>   1
Atom   7B    basis set group =>   1
Atom   8B    basis set group =>   1
Atom   9B    basis set group =>   1
Atom  10B    basis set group =>   1
Atom  11B    basis set group =>   1
---------------------------------
AUXILIARY/J BASIS SET INFORMATION
---------------------------------
There are 1 groups of distinct atoms

 Group   1 Type B   : 12s5p4d2f1g contracted to 6s4p3d1f1g pattern {711111/2111/211/2/1}

Atom   0B    basis set group =>   1
Atom   1B    basis set group =>   1
Atom   2B    basis set group =>   1
Atom   3B    basis set group =>   1
Atom   4B    basis set group =>   1
Atom   5B    basis set group =>   1
Atom   6B    basis set group =>   1
Atom   7B    basis set group =>   1
Atom   8B    basis set group =>   1
Atom   9B    basis set group =>   1
Atom  10B    basis set group =>   1
Atom  11B    basis set group =>   1


           ************************************************************
           *        Program running with 8 parallel MPI-processes     *
           *              working on a common directory               *
           ************************************************************
------------------------------------------------------------------------------
                             ORCA STARTUP CALCULATIONS
                           -- RI-GTO INTEGRALS CHOSEN --
------------------------------------------------------------------------------
------------------------------------------------------------------------------
                   ___                                                        
                  /   \      - P O W E R E D   B Y -                         
                 /     \                                                     
                 |  |  |   _    _      __       _____    __    __             
                 |  |  |  | |  | |    /  \     |  _  \  |  |  /  |          
                  \  \/   | |  | |   /    \    | | | |  |  | /  /          
                 / \  \   | |__| |  /  /\  \   | |_| |  |  |/  /          
                |  |  |   |  __  | /  /__\  \  |    /   |      \           
                |  |  |   | |  | | |   __   |  |    \   |  |\   \          
                \     /   | |  | | |  |  |  |  | |\  \  |  | \   \       
                 \___/    |_|  |_| |__|  |__|  |_| \__\ |__|  \__/        
                                                                              
                      - O R C A' S   B I G   F R I E N D -                    
                                      &                                       
                       - I N T E G R A L  F E E D E R -                       
                                                                              
 v1 FN, 2020, v2 2021, v3 2022-2024                                           
------------------------------------------------------------------------------


----------------------
SHARK INTEGRAL PACKAGE
----------------------

Number of atoms                             ...     12
Number of basis functions                   ...    168
Number of shells                            ...     72
Maximum angular momentum                    ...      2
Integral batch strategy                     ... SHARK/LIBINT Hybrid
RI-J (if used) integral strategy            ... SPLIT-RIJ (Revised 2003 algorithm where possible)
Printlevel                                  ...      1
Contraction scheme used                     ... SEGMENTED contraction
Prescreening option                         ... SCHWARTZ
   Thresh                                   ... 2.500e-11
   Tcut                                     ... 2.500e-12
   Tpresel                                  ... 2.500e-12 
Coulomb Range Separation                    ... NOT USED
Exchange Range Separation                   ... NOT USED
Multipole approximations                    ... NOT USED
Finite Nucleus Model                        ... NOT USED
CABS basis                                  ... NOT available
Auxiliary Coulomb fitting basis             ... AVAILABLE
   # of basis functions in Aux-J            ...    588
   # of shells in Aux-J                     ...    180
   Maximum angular momentum in Aux-J        ...      4
Auxiliary J/K fitting basis                 ... NOT available
Auxiliary Correlation fitting basis         ... NOT available
Auxiliary 'external' fitting basis          ... NOT available

Checking pre-screening integrals            ... done (  0.0 sec) Dimension = 72
   => SHARK Basis and OBASIS are compatible. Storing Pre-screening
Shell pair information
Shell pair cut-off parameter TPreSel        ...   2.5e-12
Total number of shell pairs                 ...      2628
Shell pairs after pre-screening             ...      2466
Total number of primitive shell pairs       ...     10596
Primitive shell pairs kept                  ...      6880
          la=0 lb=0:    592 shell pairs
          la=1 lb=0:    828 shell pairs
          la=1 lb=1:    300 shell pairs
          la=2 lb=0:    390 shell pairs
          la=2 lb=1:    286 shell pairs
          la=2 lb=2:     70 shell pairs

Checking whether 4 symmetric matrices of dimension 168 fit in memory
:Max Core in MB      =   2500.00
 MB in use           =      6.62
 MB left             =   2493.38
 MB needed           =      0.43
 Data fit in memory  = YES
Calculating RI/J V-Matrix + Cholesky decomp.... done (  0.0 sec)
Calculating Nuclear repulsion               ... done (  0.0 sec) ENN=    257.143189984967 Eh

Diagonalization of the overlap matrix:
Smallest eigenvalue                        ... 1.050e-03
Time for diagonalization                   ...    0.004 sec
Threshold for overlap eigenvalues          ... 1.000e-07
Number of eigenvalues below threshold      ... 0
Time for construction of square roots      ...    0.002 sec
Total time needed                          ...    0.008 sec

-------------------
DFT GRID GENERATION
-------------------

General Integration Accuracy     IntAcc      ... 4.388
Radial Grid Type                 RadialGrid  ... OptM3 with GC (2021)
Angular Grid (max. ang.)         AngularGrid ... 4 (Lebedev-302)
Angular grid pruning method      GridPruning ... 4 (adaptive)
Weight generation scheme         WeightScheme... mBecke (2022)
Basis function cutoff            BFCut       ... 1.0000e-11
Integration weight cutoff        WCut        ... 1.0000e-14
Partially contracted basis set               ... off
Rotationally invariant grid construction     ... off
Angular grids for H and He will be reduced by one unit

Total number of grid points                  ...    72382
Total number of batches                      ...     1134
Average number of points per batch           ...       63
Average number of grid points per atom       ...     6032
Grids setup in   0.9 sec
Initializing property integral containers    ... done (  0.0 sec)

SHARK setup successfully completed in   1.0 seconds

Maximum memory used throughout the entire STARTUP-calculation: 19.8 MB


           ************************************************************
           *        Program running with 8 parallel MPI-processes     *
           *              working on a common directory               *
           ************************************************************
-------------------------------------------------------------------------------
                                 ORCA GUESS
                   Start orbitals & Density for SCF / CASSCF
-------------------------------------------------------------------------------

------------
SCF SETTINGS
------------
Hamiltonian:
 Density Functional     Method          .... DFT(GTOs)
 Exchange Functional    Exchange        .... B88
   X-Alpha parameter    XAlpha          ....  0.666667
   Becke's b parameter  XBeta           ....  0.004200
 Correlation Functional Correlation     .... P86
 LDA part of GGA corr.  LDAOpt          .... PW91-LDA
 Gradients option       PostSCFGGA      .... off
   NL short-range parameter             ....  4.400000
 RI-approximation to the Coulomb term is turned on
   Number of AuxJ basis functions       .... 588


General Settings:
 Integral files         IntName         .... quasi_planar_nn1.70_perturb1
 Hartree-Fock type      HFTyp           .... RHF
 Total Charge           Charge          ....    0
 Multiplicity           Mult            ....    1
 Number of Electrons    NEL             ....   60
 Basis Dimension        Dim             ....  168
 Nuclear Repulsion      ENuc            ....    257.1431899850 Eh

Convergence Acceleration:
 AO-DIIS                CNVDIIS         .... on
   Start iteration      DIISMaxIt       ....     0
   Startup error        DIISStart       ....  0.200000
   # of expansion vecs  DIISMaxEq       ....     5
   Bias factor          DIISBfac        ....   1.050
   Max. coefficient     DIISMaxC        ....  10.000
 MO-DIIS                CNVKDIIS        .... off
 Trust-Rad. Augm. Hess. CNVTRAH         .... auto
   Auto Start mean grad. ratio tolernc. ....  1.125000
   Auto Start start iteration           ....    50
   Auto Start num. interpolation iter.  ....    10
   Max. Number of Micro iterations      ....    24
   Max. Number of Macro iterations      .... Maxiter - #DIIS iter
   Number of Davidson start vectors     ....     2
   Converg. threshold    (grad. norm)   ....   1.000e-05
   Grad. Scal. Fac. for Micro threshold ....   0.100
   Minimum threshold for Micro iter.    ....   1.000e-02
   NR start threshold (gradient norm)   ....   1.000e-04
   Initial trust radius                 ....   0.400
   Minimum AH scaling param. (alpha)    ....   1.000
   Maximum AH scaling param. (alpha)    .... 1000.000
   Quad. conv. algorithm                .... NR
   White noise on init. David. guess    .... on
   Maximum white noise                  ....   0.010
   Pseudo random numbers                .... off
   Inactive MOs                         .... canonical
   Orbital update algorithm             .... Taylor
   Preconditioner                       .... Diag
   Full preconditioner red. dimension   ....   250
 SOSCF                 CNVSOSCF           .... on
   Start iteration     SOSCFMaxIt         ....   150
   Startup grad/error  SOSCFStart         ....  0.001000
   Hessian update      SOSCFHessUp        .... L-BFGS
   Autom. constraints  SOSCFAutoConstrain .... off
 Level Shifting         CNVShift        .... on
   Level shift para.    LevelShift      ....    0.2500
   Turn off err/grad.   ShiftErr        ....    0.0000
 Zerner damping         CNVZerner       .... off
 Static damping         CNVDamp         .... on
   Fraction old density DampFac         ....    0.8500
   Max. Damping (<1)    DampMax         ....    0.9800
   Min. Damping (>=0)   DampMin         ....    0.0000
   Turn off err/grad.   DampErr         ....    0.0300

SCF Procedure:
 Maximum # iterations   MaxIter         ....   125
 SCF integral mode      SCFMode         .... Direct
   Integral package                     .... SHARK and LIBINT hybrid scheme
 Reset frequency        DirectResetFreq ....    20
 Integral Threshold     Thresh          ....  2.500e-11 Eh
 Primitive CutOff       TCut            ....  2.500e-12 Eh

Convergence Tolerance:
 Convergence Check Mode ConvCheckMode   .... Total+1el-Energy
 Convergence forced     ConvForced      .... 0
 Energy Change          TolE            ....  1.000e-08 Eh
 1-El. energy change                    ....  1.000e-05 Eh
 Orbital Gradient       TolG            ....  1.000e-05
 Orbital Rotation angle TolX            ....  1.000e-05
 DIIS Error             TolErr          ....  5.000e-07

------------------------------
INITIAL GUESS: MODEL POTENTIAL
------------------------------
Loading Hartree-Fock densities                     ... done
Calculating cut-offs                               ... done
Initializing the effective Hamiltonian             ... done
Setting up the integral package (SHARK)            ... done
Starting the Coulomb interaction                   ... done (   0.0 sec)
Making the grid                                    ... done (   0.2 sec)
Mapping shells                                     ... done
Starting the XC term evaluation                    ... done (   0.0 sec)
  promolecular density results
     # of electrons  =     60.000175444
     EX              =    -44.800771165
     EC              =     -1.828110324
     EX+EC           =    -46.628881489
Transforming the Hamiltonian                       ... done (   0.0 sec)
Diagonalizing the Hamiltonian                      ... done (   0.0 sec)
Back transforming the eigenvectors                 ... done (   0.0 sec)
Now organizing SCF variables                       ... done
                      ------------------
                      INITIAL GUESS DONE (   0.4 sec)
                      ------------------
             **** ENERGY FILE WAS UPDATED (quasi_planar_nn1.70_perturb1.en.tmp) ****
Finished Guess after   0.9 sec
Maximum memory used throughout the entire GUESS-calculation: 9.4 MB


           ************************************************************
           *        Program running with 8 parallel MPI-processes     *
           *              working on a common directory               *
           ************************************************************

-------------------------------------------------------------------------------------------
                                      ORCA LEAN-SCF
                              memory conserving SCF solver
-------------------------------------------------------------------------------------------

----------------------------------------D-I-I-S--------------------------------------------
Iteration    Energy (Eh)           Delta-E    RMSDP     MaxDP     DIISErr   Damp  Time(sec)
-------------------------------------------------------------------------------------------
               ***  Starting incremental Fock matrix formation  ***
    1    -296.3844123967704718     0.00e+00  8.08e-03  6.36e-02  1.39e-01  0.850   0.4
Warning: op=0 Small HOMO/LUMO gap (  -0.064) - skipping pre-diagonalization
         Will do a full diagonalization
    2    -296.5796611646469501    -1.95e-01  8.55e-03  5.55e-02  8.06e-02  0.850   0.4
                               ***Turning on AO-DIIS***
    3    -296.6373938772065912    -5.77e-02  5.05e-03  2.65e-02  2.56e-02  0.850   0.3
    4    -296.6235446989435331     1.38e-02  2.28e-02  1.10e-01  3.01e-02  0.000   0.8
    5    -296.2895300863872308     3.34e-01  1.19e-03  7.43e-03  1.93e-01  0.850   0.8
    6    -296.3337332874742742    -4.42e-02  1.76e-03  1.08e-02  1.83e-01  0.850   0.7
    7    -296.3939662775718489    -6.02e-02  1.98e-03  1.19e-02  1.67e-01  0.850   0.5
    8    -296.4550295079218358    -6.11e-02  2.43e-03  1.38e-02  1.50e-01  0.850   0.5
    9    -296.5157718945545184    -6.07e-02  4.78e-03  3.35e-02  1.34e-01  0.850   0.5
   10    -296.6129794948069502    -9.72e-02  3.36e-03  2.07e-02  9.12e-02  0.850   0.3
   11    -296.6686376189323937    -5.57e-02  2.55e-03  1.35e-02  6.49e-02  0.850   0.4
   12    -296.7025070581850059    -3.39e-02  2.10e-03  9.99e-03  4.47e-02  0.850   0.3
   13    -296.7225182187875134    -2.00e-02  1.63e-03  7.90e-03  2.89e-02  0.850   0.5
   14    -296.7337261836011066    -1.12e-02  8.48e-03  3.72e-02  1.77e-02  0.000   0.6
   15    -296.7430688586808856    -9.34e-03  2.18e-03  1.40e-02  3.75e-02  0.000   0.3
   16    -296.7539623254602930    -1.09e-02  1.62e-04  1.10e-03  2.85e-02  0.850   0.5
   17    -296.7548427868157432    -8.80e-04  1.54e-03  9.30e-03  2.74e-02  0.000   0.4
   18    -296.7619098350471631    -7.07e-03  7.71e-04  4.38e-03  1.67e-02  0.000   0.5
   19    -296.7638409117166702    -1.93e-03  8.94e-04  7.04e-03  1.33e-02  0.000   0.3
   20    -296.7653150165742773    -1.47e-03  1.07e-03  9.05e-03  6.70e-03  0.000   0.3
               *** Restarting incremental Fock matrix formation ***
                             ****Resetting DIIS****
Warning: op=0 Small HOMO/LUMO gap (  -0.005) - skipping pre-diagonalization
         Will do a full diagonalization
   21    -296.7660368089406120    -7.22e-04  3.73e-03  2.16e-02  4.95e-03  0.000   0.3
   22    -296.7568391872964639     9.20e-03  1.58e-03  1.03e-02  2.70e-02  0.000   0.3
   23    -296.7635643671978869    -6.73e-03  7.38e-04  4.28e-03  1.51e-02  0.000   0.3
   24    -296.7654705958120758    -1.91e-03  4.08e-04  2.18e-03  9.24e-03  0.000   0.2
   25    -296.7661053215261973    -6.35e-04  3.57e-04  2.02e-03  6.13e-03  0.000   0.3
   26    -296.7663971275964059    -2.92e-04  4.59e-04  2.87e-03  3.95e-03  0.000   0.3
   27    -296.7665677356027345    -1.71e-04  3.61e-04  2.77e-03  1.83e-03  0.000   0.3
   28    -296.7665877830606860    -2.00e-05  2.46e-04  1.64e-03  1.20e-03  0.000   0.3
                              *** Initializing SOSCF ***
---------------------------------------S-O-S-C-F--------------------------------------
Iteration    Energy (Eh)           Delta-E    RMSDP     MaxDP     MaxGrad    Time(sec)
--------------------------------------------------------------------------------------
   29    -296.7666056494492750    -1.79e-05  1.52e-04  1.20e-03  8.58e-04     0.3
               *** Restarting incremental Fock matrix formation ***
   30    -296.7666198952739478    -1.42e-05  2.40e-04  1.45e-03  2.71e-04     0.3
   31    -296.7665957076821996     2.42e-05  1.73e-04  1.00e-03  1.21e-03     0.3
   32    -296.7666262522513989    -3.05e-05  1.35e-04  8.24e-04  1.82e-04     0.3
   33    -296.7666253436491388     9.09e-07  1.25e-04  5.01e-04  3.25e-04     0.3
   34    -296.7666324659182919    -7.12e-06  2.65e-04  1.00e-03  1.52e-04     0.3
   35    -296.7666373617870477    -4.90e-06  3.73e-04  1.38e-03  1.43e-04     0.2
   36    -296.7666418753349262    -4.51e-06  3.08e-04  1.05e-03  2.26e-04     0.2
   37    -296.7666420000607559    -1.25e-07  8.19e-05  7.36e-04  2.14e-04     0.2
   38    -296.7666453508213635    -3.35e-06  8.10e-05  7.64e-04  9.48e-05     0.2
   39    -296.7666455516587121    -2.01e-07  8.02e-05  3.35e-04  1.03e-04     0.3
   40    -296.7666470363230928    -1.48e-06  2.34e-04  1.04e-03  8.32e-05     0.3
   41    -296.7666486185541999    -1.58e-06  3.27e-04  1.51e-03  8.19e-05     0.4
   42    -296.7666505900363063    -1.97e-06  3.92e-04  1.79e-03  1.29e-04     0.3
   43    -296.7666520172726905    -1.43e-06  2.21e-04  1.02e-03  1.23e-04     0.3
   44    -296.7666531768929872    -1.16e-06  5.89e-05  2.91e-04  8.26e-05     0.3
   45    -296.7666535999791222    -4.23e-07  5.59e-05  2.55e-04  4.31e-05     0.6
   46    -296.7666538557764397    -2.56e-07  5.95e-05  2.71e-04  2.14e-05     0.3
   47    -296.7666539240556176    -6.83e-08  2.25e-05  1.08e-04  9.47e-06     0.3
   48    -296.7666539380846871    -1.40e-08  6.71e-06  3.00e-05  5.58e-06     0.3
   49    -296.7666539445739318    -6.49e-09  7.55e-06  3.17e-05  3.43e-06     0.3
                 **** Energy Check signals convergence ****
               *** Restarting incremental Fock matrix formation ***

               *****************************************************
               *                     SUCCESS                       *
               *           SCF CONVERGED AFTER  49 CYCLES          *
               *****************************************************

             **** ENERGY FILE WAS UPDATED (quasi_planar_nn1.70_perturb1.en.tmp) ****

----------------
TOTAL SCF ENERGY
----------------

Total Energy       :       -296.76665393934627 Eh           -8075.43120 eV

Components:
Nuclear Repulsion  :        257.14318998496674 Eh            6997.22193 eV
Electronic Energy  :       -553.90984392431301 Eh          -15072.65313 eV
One Electron Energy:       -902.64032143524491 Eh          -24562.09186 eV
Two Electron Energy:        348.73047751093191 Eh            9489.43873 eV

Virial components:
Potential Energy   :       -587.68821700940089 Eh          -15991.80939 eV
Kinetic Energy     :        290.92156307005456 Eh            7916.37819 eV
Virial Ratio       :          2.02009163847330

DFT components:
N(Alpha)           :       29.999991882302 electrons
N(Beta)            :       29.999991882302 electrons
N(Total)           :       59.999983764604 electrons
E(X)               :      -45.043386369088 Eh       
E(C)               :       -1.861911016713 Eh       
E(XC)              :      -46.905297385801 Eh       

---------------
SCF CONVERGENCE
---------------

  Last Energy change         ...    6.4892e-09  Tolerance :   1.0000e-08
  Last MAX-Density change    ...    3.1750e-05  Tolerance :   1.0000e-07
  Last RMS-Density change    ...    7.5479e-06  Tolerance :   5.0000e-09
  Last DIIS Error            ...    8.5773e-04  Tolerance :   5.0000e-07
  Last Orbital Gradient      ...    3.4296e-06  Tolerance :   1.0000e-05
  Last Orbital Rotation      ...    1.5674e-04  Tolerance :   1.0000e-05


----------------
ORBITAL ENERGIES
----------------

  NO   OCC          E(Eh)            E(eV) 
   0   2.0000      -6.674222      -181.6148 
   1   2.0000      -6.670141      -181.5038 
   2   2.0000      -6.661677      -181.2734 
   3   2.0000      -6.653858      -181.0607 
   4   2.0000      -6.646038      -180.8479 
   5   2.0000      -6.644478      -180.8054 
   6   2.0000      -6.638483      -180.6423 
   7   2.0000      -6.635846      -180.5705 
   8   2.0000      -6.630184      -180.4165 
   9   2.0000      -6.619358      -180.1219 
  10   2.0000      -6.605404      -179.7422 
  11   2.0000      -6.600277      -179.6027 
  12   2.0000      -0.550630       -14.9834 
  13   2.0000      -0.480088       -13.0638 
  14   2.0000      -0.474404       -12.9092 
  15   2.0000      -0.448577       -12.2064 
  16   2.0000      -0.433732       -11.8024 
  17   2.0000      -0.402045       -10.9402 
  18   2.0000      -0.354800        -9.6546 
  19   2.0000      -0.342852        -9.3295 
  20   2.0000      -0.317721        -8.6456 
  21   2.0000      -0.300708        -8.1827 
  22   2.0000      -0.271826        -7.3968 
  23   2.0000      -0.261857        -7.1255 
  24   2.0000      -0.254488        -6.9250 
  25   2.0000      -0.251445        -6.8422 
  26   2.0000      -0.225123        -6.1259 
  27   2.0000      -0.214223        -5.8293 
  28   2.0000      -0.202048        -5.4980 
  29   2.0000      -0.196465        -5.3461 
  30   0.0000      -0.199626        -5.4321 
  31   0.0000      -0.179333        -4.8799 
  32   0.0000      -0.171660        -4.6711 
  33   0.0000      -0.167090        -4.5468 
  34   0.0000      -0.153657        -4.1812 
  35   0.0000      -0.149995        -4.0816 
  36   0.0000      -0.145918        -3.9706 
  37   0.0000      -0.124231        -3.3805 
  38   0.0000      -0.119795        -3.2598 
  39   0.0000      -0.102353        -2.7852 
  40   0.0000      -0.101096        -2.7510 
*Only the first 10 virtual orbitals were printed.

                    ********************************
                    * MULLIKEN POPULATION ANALYSIS *
                    ********************************

-----------------------
MULLIKEN ATOMIC CHARGES
-----------------------
   0 B :   -0.170182
   1 B :   -0.234837
   2 B :   -0.162676
   3 B :    0.025546
   4 B :    0.025140
   5 B :    0.099306
   6 B :    0.028486
   7 B :    0.015677
   8 B :    0.150178
   9 B :    0.066049
  10 B :    0.142969
  11 B :    0.014345
Sum of atomic charges:    0.0000000

--------------------------------
MULLIKEN REDUCED ORBITAL CHARGES
--------------------------------
  0 B s       :     3.177384  s :     3.177384
      pz      :     0.540958  p :     1.965332
      px      :     0.688207
      py      :     0.736167
      dz2     :     0.002475  d :     0.027466
      dxz     :     0.005553
      dyz     :     0.000377
      dx2y2   :     0.010372
      dxy     :     0.008689

  1 B s       :     3.147138  s :     3.147138
      pz      :     0.618434  p :     2.058864
      px      :     0.697155
      py      :     0.743276
      dz2     :     0.002760  d :     0.028835
      dxz     :     0.002777
      dyz     :     0.001633
      dx2y2   :     0.010310
      dxy     :     0.011356

  2 B s       :     3.130462  s :     3.130462
      pz      :     0.406208  p :     2.006574
      px      :     0.800561
      py      :     0.799806
      dz2     :     0.002199  d :     0.025640
      dxz     :     0.001648
      dyz     :     0.003364
      dx2y2   :     0.008769
      dxy     :     0.009659

  3 B s       :     3.301028  s :     3.301028
      pz      :     0.498136  p :     1.657783
      px      :     0.513563
      py      :     0.646084
      dz2     :     0.001670  d :     0.015643
      dxz     :     0.001771
      dyz     :     0.000316
      dx2y2   :     0.007068
      dxy     :     0.004818

  4 B s       :     3.401380  s :     3.401380
      pz      :     0.350123  p :     1.558191
      px      :     0.680340
      py      :     0.527729
      dz2     :     0.001717  d :     0.015289
      dxz     :     0.000879
      dyz     :     0.001175
      dx2y2   :     0.005301
      dxy     :     0.006217

  5 B s       :     3.521370  s :     3.521370
      pz      :     0.166595  p :     1.362850
      px      :     0.668515
      py      :     0.527740
      dz2     :     0.001977  d :     0.016473
      dxz     :     0.001580
      dyz     :     0.001353
      dx2y2   :     0.005136
      dxy     :     0.006428

  6 B s       :     3.390264  s :     3.390264
      pz      :     0.395987  p :     1.561056
      px      :     0.623893
      py      :     0.541176
      dz2     :     0.002038  d :     0.020194
      dxz     :     0.000844
      dyz     :     0.002940
      dx2y2   :     0.006043
      dxy     :     0.008329

  7 B s       :     3.617859  s :     3.617859
      pz      :     0.351278  p :     1.349681
      px      :     0.407069
      py      :     0.591333
      dz2     :     0.001781  d :     0.016784
      dxz     :     0.001988
      dyz     :     0.000715
      dx2y2   :     0.007128
      dxy     :     0.005172

  8 B s       :     3.804231  s :     3.804231
      pz      :     0.152247  p :     1.035209
      px      :     0.385100
      py      :     0.497861
      dz2     :     0.001526  d :     0.010382
      dxz     :     0.000580
      dyz     :     0.000134
      dx2y2   :     0.004510
      dxy     :     0.003631

  9 B s       :     3.682271  s :     3.682271
      pz      :     0.118386  p :     1.237243
      px      :     0.552133
      py      :     0.566724
      dz2     :     0.001909  d :     0.014438
      dxz     :     0.000315
      dyz     :     0.001285
      dx2y2   :     0.005914
      dxy     :     0.005015

 10 B s       :     3.807217  s :     3.807217
      pz      :     0.110990  p :     1.040413
      px      :     0.526894
      py      :     0.402529
      dz2     :     0.001609  d :     0.009400
      dxz     :     0.000442
      dyz     :     0.000450
      dx2y2   :     0.002387
      dxy     :     0.004512

 11 B s       :     3.515901  s :     3.515901
      pz      :     0.384295  p :     1.457470
      px      :     0.430100
      py      :     0.643076
      dz2     :     0.001472  d :     0.012284
      dxz     :     0.000281
      dyz     :     0.001266
      dx2y2   :     0.003982
      dxy     :     0.005283



                     *******************************
                     * LOEWDIN POPULATION ANALYSIS *
                     *******************************

----------------------
LOEWDIN ATOMIC CHARGES
----------------------
   0 B :   -0.042989
   1 B :   -0.132189
   2 B :   -0.074211
   3 B :   -0.088408
   4 B :    0.031145
   5 B :    0.088124
   6 B :   -0.047093
   7 B :    0.020799
   8 B :    0.125883
   9 B :   -0.024745
  10 B :    0.135356
  11 B :    0.008326

-------------------------------
LOEWDIN REDUCED ORBITAL CHARGES
-------------------------------
  0 B s       :     2.862713  s :     2.862713
      pz      :     0.528394  p :     2.117234
      px      :     0.828418
      py      :     0.760422
      dz2     :     0.007838  d :     0.063041
      dxz     :     0.009492
      dyz     :     0.000595
      dx2y2   :     0.025059
      dxy     :     0.020057

  1 B s       :     2.816490  s :     2.816490
      pz      :     0.604192  p :     2.243933
      px      :     0.769182
      py      :     0.870559
      dz2     :     0.008847  d :     0.071766
      dxz     :     0.004896
      dyz     :     0.003239
      dx2y2   :     0.025430
      dxy     :     0.029354

  2 B s       :     2.897996  s :     2.897996
      pz      :     0.414001  p :     2.114129
      px      :     0.815290
      py      :     0.884838
      dz2     :     0.007905  d :     0.062086
      dxz     :     0.002784
      dyz     :     0.005668
      dx2y2   :     0.023337
      dxy     :     0.022392

  3 B s       :     3.057203  s :     3.057203
      pz      :     0.516799  p :     1.992516
      px      :     0.652114
      py      :     0.823603
      dz2     :     0.004974  d :     0.038689
      dxz     :     0.003003
      dyz     :     0.000553
      dx2y2   :     0.019677
      dxy     :     0.010482

  4 B s       :     3.139864  s :     3.139864
      pz      :     0.351178  p :     1.797351
      px      :     0.810022
      py      :     0.636152
      dz2     :     0.004322  d :     0.031639
      dxz     :     0.001217
      dyz     :     0.001931
      dx2y2   :     0.010895
      dxy     :     0.013273

  5 B s       :     3.252919  s :     3.252919
      pz      :     0.171552  p :     1.626627
      px      :     0.823950
      py      :     0.631125
      dz2     :     0.004825  d :     0.032331
      dxz     :     0.002466
      dyz     :     0.001846
      dx2y2   :     0.009272
      dxy     :     0.013922

  6 B s       :     3.088905  s :     3.088905
      pz      :     0.413192  p :     1.909406
      px      :     0.785165
      py      :     0.711050
      dz2     :     0.006086  d :     0.048782
      dxz     :     0.001745
      dyz     :     0.005094
      dx2y2   :     0.011459
      dxy     :     0.024398

  7 B s       :     3.322104  s :     3.322104
      pz      :     0.360655  p :     1.621300
      px      :     0.521080
      py      :     0.739565
      dz2     :     0.005311  d :     0.035798
      dxz     :     0.002780
      dyz     :     0.001173
      dx2y2   :     0.013305
      dxy     :     0.013229

  8 B s       :     3.609204  s :     3.609204
      pz      :     0.153777  p :     1.244741
      px      :     0.498029
      py      :     0.592935
      dz2     :     0.003565  d :     0.020171
      dxz     :     0.000731
      dyz     :     0.000174
      dx2y2   :     0.007486
      dxy     :     0.008215

  9 B s       :     3.421414  s :     3.421414
      pz      :     0.127013  p :     1.571760
      px      :     0.694245
      py      :     0.750502
      dz2     :     0.005242  d :     0.031572
      dxz     :     0.000507
      dyz     :     0.002118
      dx2y2   :     0.012127
      dxy     :     0.011578

 10 B s       :     3.621836  s :     3.621836
      pz      :     0.112005  p :     1.225511
      px      :     0.638678
      py      :     0.474828
      dz2     :     0.003350  d :     0.017298
      dxz     :     0.000614
      dyz     :     0.000542
      dx2y2   :     0.004199
      dxy     :     0.008594

 11 B s       :     3.264705  s :     3.264705
      pz      :     0.386716  p :     1.699511
      px      :     0.522300
      py      :     0.790496
      dz2     :     0.004231  d :     0.027457
      dxz     :     0.000394
      dyz     :     0.001865
      dx2y2   :     0.010648
      dxy     :     0.010320



                      *****************************
                      * MAYER POPULATION ANALYSIS *
                      *****************************

  NA   - Mulliken gross atomic population
  ZA   - Total nuclear charge
  QA   - Mulliken gross atomic charge
  VA   - Mayer's total valence
  BVA  - Mayer's bonded valence
  FA   - Mayer's free valence

  ATOM       NA         ZA         QA         VA         BVA        FA
  0 B      5.1702     5.0000    -0.1702     3.5670     3.5670     0.0000
  1 B      5.2348     5.0000    -0.2348     3.6601     3.6601     0.0000
  2 B      5.1627     5.0000    -0.1627     3.4786     3.4786     0.0000
  3 B      4.9745     5.0000     0.0255     3.1766     3.1766    -0.0000
  4 B      4.9749     5.0000     0.0251     2.9720     2.9720     0.0000
  5 B      4.9007     5.0000     0.0993     2.5377     2.5377     0.0000
  6 B      4.9715     5.0000     0.0285     2.9591     2.9591    -0.0000
  7 B      4.9843     5.0000     0.0157     2.5240     2.5240     0.0000
  8 B      4.8498     5.0000     0.1502     1.8725     1.8725     0.0000
  9 B      4.9340     5.0000     0.0660     2.0984     2.0984     0.0000
 10 B      4.8570     5.0000     0.1430     1.8178     1.8178    -0.0000
 11 B      4.9857     5.0000     0.0143     2.7481     2.7481     0.0000

  Mayer bond orders larger than 0.100000
B(  0-B ,  1-B ) :   0.6926 B(  0-B ,  2-B ) :   0.8543 B(  0-B ,  3-B ) :   0.6391 
B(  0-B ,  4-B ) :   0.5007 B(  0-B ,  5-B ) :   0.1545 B(  0-B , 10-B ) :   0.1413 
B(  0-B , 11-B ) :   0.4187 B(  1-B ,  2-B ) :   1.0394 B(  1-B ,  4-B ) :   0.1012 
B(  1-B ,  5-B ) :   0.3948 B(  1-B ,  6-B ) :   0.7205 B(  1-B ,  7-B ) :   0.4213 
B(  2-B ,  5-B ) :   0.1086 B(  2-B ,  6-B ) :   0.1084 B(  2-B ,  7-B ) :   0.1261 
B(  2-B ,  8-B ) :   0.2810 B(  2-B ,  9-B ) :   0.6626 B(  2-B , 10-B ) :   0.1930 
B(  3-B ,  4-B ) :   0.9536 B(  3-B , 10-B ) :   0.1230 B(  3-B , 11-B ) :   1.0458 
B(  4-B ,  5-B ) :   0.8395 B(  4-B , 11-B ) :   0.1942 B(  5-B ,  6-B ) :   0.6324 
B(  5-B ,  7-B ) :   0.1082 B(  6-B ,  7-B ) :   0.9584 B(  7-B ,  8-B ) :   0.4705 
B(  7-B , 11-B ) :   0.1129 B(  8-B ,  9-B ) :   0.5846 B(  9-B , 10-B ) :   0.3557 
B( 10-B , 11-B ) :   0.6565 

-------
TIMINGS
-------

Total SCF time: 0 days 0 hours 0 min 18 sec 

Total time                  ....      18.819 sec
Sum of individual times     ....      17.945 sec  ( 95.4%)

SCF preparation             ....       0.486 sec  (  2.6%)
Fock matrix formation       ....      14.318 sec  ( 76.1%)
  Startup                   ....       0.047 sec  (  0.3% of F)
  Split-RI-J                ....       4.725 sec  ( 33.0% of F)
  XC integration            ....       9.135 sec  ( 63.8% of F)
    XC Preparation          ....       0.000 sec  (  0.0% of XC)
    Basis function eval.    ....       1.813 sec  ( 19.8% of XC)
    Density eval.           ....       1.119 sec  ( 12.2% of XC)
    XC-Functional eval.     ....       0.277 sec  (  3.0% of XC)
    XC-Potential eval.      ....       1.257 sec  ( 13.8% of XC)
Diagonalization             ....       0.000 sec  (  0.0%)
Density matrix formation    ....       0.487 sec  (  2.6%)
Total Energy calculation    ....       0.303 sec  (  1.6%)
Population analysis         ....       0.038 sec  (  0.2%)
Orbital Transformation      ....       0.040 sec  (  0.2%)
Orbital Orthonormalization  ....       0.000 sec  (  0.0%)
DIIS solution               ....       1.717 sec  (  9.1%)
SOSCF solution              ....       0.555 sec  (  2.9%)
Finished LeanSCF after  18.8 sec

Maximum memory used throughout the entire LEANSCF-calculation: 9.7 MB


-------------------------------------------------------------------------------
                          DFT DISPERSION CORRECTION                            
                                                                               
                              DFTD3 V3.1  Rev 1                                
                          USING Becke-Johnson damping                          
-------------------------------------------------------------------------------
The BP86 functional is recognized
Active option DFTDOPT                   ...         4   

molecular C6(AA) [au] = 10328.153815 


            DFT-D V3
 parameters
 s6 scaling factor         :     1.0000 
 a1 scaling factor         :     0.3946 
 s8 scaling factor         :     3.2822 
 a2 scaling factor         :     4.8516 
 ad hoc parameters k1-k3   :    16.0000     1.3333    -4.0000 

 Edisp/kcal,au: -31.914747826879  -0.050859382594 
 E6   /kcal   :  -9.407528406 
 E8   /kcal   : -22.507219421 
 % E8         :  70.522943007 

-------------------------   ----------------
Dispersion correction           -0.050859383
-------------------------   ----------------


-------------------------   --------------------
FINAL SINGLE POINT ENERGY      -296.817513321940
-------------------------   --------------------



           ************************************************************
           *        Program running with 8 parallel MPI-processes     *
           *              working on a common directory               *
           ************************************************************
------------------------------------------------------------------------------
                         ORCA SCF GRADIENT CALCULATION
------------------------------------------------------------------------------

Nuc. rep. gradient        (SHARK) ... done (  0.0 sec)
HCore & Overlap gradient  (SHARK) ... done (  0.0 sec)
Split-RIJ-J gradient      (SHARK) ... done (  0.4 sec)
XC gradient                       ... done (  0.8 sec)
Dispersion correction             ... done (  0.1 sec)

-------------------
DISPERSION GRADIENT
-------------------

   1   B   :   -0.002973112    0.002516271   -0.000172875
   2   B   :   -0.000790444    0.003226286   -0.001890281
   3   B   :   -0.000369605   -0.000379370   -0.000181039
   4   B   :   -0.001566445   -0.001018012    0.000220788
   5   B   :    0.000158980   -0.000066692    0.000099786
   6   B   :   -0.000372965   -0.000660736    0.000141541
   7   B   :    0.003447591   -0.006465830    0.001708632
   8   B   :    0.001627610    0.002326958   -0.000043924
   9   B   :    0.001286024   -0.002079787   -0.000005157
  10   B   :   -0.001665615    0.002447455    0.000255318
  11   B   :    0.000547025   -0.000834309   -0.000058581
  12   B   :    0.000670955    0.000987767   -0.000074209

Difference to translation invariance:
           :   -0.0000000000    0.0000000000    0.0000000000

Difference to rotation invariance:
           :   -0.0000000000    0.0000000000   -0.0000000000

Norm of the Dispersion gradient    ...    0.0107801841
RMS gradient                       ...    0.0017966974
MAX gradient                       ...    0.0064658298

------------------
CARTESIAN GRADIENT
------------------

   1   B   :   -0.020373807   -0.004376874    0.017613932
   2   B   :    0.016736238   -0.007805662    0.015460814
   3   B   :    0.000751960    0.005349537    0.006233588
   4   B   :    0.090743792    0.011063303   -0.002726132
   5   B   :    0.022396052    0.063836270   -0.012921789
   6   B   :    0.005237733    0.050916835   -0.002654064
   7   B   :   -0.044137075    0.060260236   -0.011765976
   8   B   :   -0.052384782   -0.012297908    0.004440222
   9   B   :   -0.033915462   -0.017071587   -0.007540453
  10   B   :   -0.008734268   -0.053008959   -0.001747915
  11   B   :   -0.011856028   -0.033312982   -0.006113603
  12   B   :    0.035535647   -0.063552208    0.001721376

Difference to translation invariance:
           :   -0.0000000000   -0.0000000000   -0.0000000000

Difference to rotation invariance:
           :   -0.0000319712    0.0000313018   -0.0000049319

Norm of the Cartesian gradient     ...    0.1916783938
RMS gradient                       ...    0.0319463990
MAX gradient                       ...    0.0907437918

-------
TIMINGS
-------

Total SCF gradient time     ....        1.239 sec

Densities                   ....       0.001 sec  (  0.1%)
One electron gradient       ....       0.046 sec  (  3.7%)
RI-J Coulomb gradient       ....       0.351 sec  ( 28.3%)
XC gradient                 ....       0.753 sec  ( 60.8%)

Maximum memory used throughout the entire SCFGRAD-calculation: 29.4 MB
------------------------------------------------------------------------------
                         ORCA GEOMETRY RELAXATION STEP
------------------------------------------------------------------------------

Reading the OPT-File                    .... done
Getting information on internals        .... done
Copying old internal coords+grads       .... done
Making the new internal coordinates     .... (2022 redundants) done
Validating the new internal coordinates .... (2022 redundants) done
Calculating the B-matrix                .... done
Calculating the G,G- and P matrices     .... done
Transforming gradient to internals      .... done
Projecting the internal gradient        .... done
Number of atoms                         ....  12
Number of internal coordinates          .... 146
Current Energy                          ....  -296.817513322 Eh
Current gradient norm                   ....     0.191678394 Eh/bohr
Maximum allowed component of the step   ....  0.300
Current trust radius                    ....  0.300
Evaluating the initial hessian          ....  (Almloef) done
Projecting the Hessian                  .... done
Forming the augmented Hessian           .... done
Diagonalizing the augmented Hessian     .... done
Last element of RFO vector              ....  0.760709793
Lowest eigenvalues of augmented Hessian:
 -0.152423528  0.010187474  0.010218394  0.010445388  0.010519692
Length of the computed step             ....  0.853271708
Warning: the length of the step is outside the trust region - taking restricted step instead
The input lambda is                     ....     0.009187
   iter:   5  x=   -0.065672  g=  150.834920 f(x)=     4.970757
   iter:  10  x=   -0.497179  g=    0.632376 f(x)=     0.057828
   iter:  15  x=   -0.537781  g=    0.298834 f(x)=     0.000000
The output lambda is                    ....    -0.537781 (15 iterations)
The final length of the internal step   ....  0.300000000
Converting the step to Cartesian space:
 Initial RMS(Int)=    0.0248281767
Transforming coordinates:
 Iter   0:  RMS(Cart)=    0.0542658805 RMS(Int)=    0.0248087721
done
Storing new coordinates                 .... done

                                .--------------------.
          ----------------------|Geometry convergence|-------------------------
          Item                value                   Tolerance       Converged
          ---------------------------------------------------------------------
          RMS gradient        0.0150905062            0.0001000000      NO
          MAX gradient        0.0574112881            0.0003000000      NO
          RMS step            0.0248281767            0.0020000000      NO
          MAX step            0.0973323385            0.0040000000      NO
          -------------------------------------------------------------------------
          ........................................................
          Max(Bonds)      0.0515      Max(Angles)    1.62
          Max(Dihed)        0.63      Max(Improp)    0.00
          ---------------------------------------------------------------------

The optimization has not yet converged - more geometry cycles are needed


    ---------------------------------------------------------------------------
                         Redundant Internal Coordinates
                            (Angstroem and degrees)

        Definition                    Value    dE/dq     Step     New-Value
    ----------------------------------------------------------------------------
     1. B(B   1,B   0)                1.9238  0.034217 -0.0269    1.8970   
     2. B(B   2,B   1)                1.7525  0.030045 -0.0223    1.7301   
     3. B(B   2,B   0)                1.8330  0.031350 -0.0241    1.8089   
     4. B(B   3,B   0)                2.1515  0.044370 -0.0401    2.1114   
     5. B(B   4,B   0)                2.3801  0.038556 -0.0362    2.3438   
     6. B(B   4,B   3)                2.1882  0.057411 -0.0515    2.1367   
     7. B(B   5,B   1)                2.4066  0.023273 -0.0235    2.3831   
     8. B(B   5,B   4)                1.9694  0.046185 -0.0379    1.9315   
     9. B(B   6,B   5)                2.3481  0.043235 -0.0395    2.3086   
    10. B(B   6,B   1)                2.0088  0.051400 -0.0445    1.9644   
    11. B(B   7,B   6)                1.9083  0.055434 -0.0438    1.8645   
    12. B(B   8,B   2)                2.8240  0.029153 -0.0284    2.7956   
    13. B(B   8,B   7)                2.6135  0.025149 -0.0235    2.5899   
    14. B(B   9,B   8)                2.2122  0.024152 -0.0222    2.1900   
    15. B(B   9,B   2)                2.2263  0.041153 -0.0378    2.1884   
    16. B(B  10,B   9)                2.5382  0.015598 -0.0149    2.5233   
    17. B(B  11,B   3)                1.9952  0.056938 -0.0481    1.9471   
    18. B(B  11,B  10)                2.2971  0.039480 -0.0365    2.2606   
    19. B(B  11,B   0)                2.5916  0.042681 -0.0410    2.5506   
    20. A(B   2,B   0,B  11)          107.08 -0.007492    0.60    107.67   
    21. A(B   2,B   0,B   3)          154.90 -0.001860    0.18    155.08   
    22. A(B   2,B   0,B   4)          143.69 -0.003490    0.31    144.00   
    23. A(B   1,B   0,B   3)          147.26  0.001648   -0.20    147.06   
    24. A(B   1,B   0,B  11)          161.66 -0.007658    0.65    162.31   
    25. A(B   4,B   0,B  11)          105.61  0.010044   -0.83    104.78   
    26. A(B   1,B   0,B   2)           55.55 -0.000189    0.05     55.60   
    27. A(B   3,B   0,B   4)           57.48  0.004873   -0.44     57.04   
    28. A(B   1,B   0,B   4)           89.86 -0.003178    0.24     90.10   
    29. A(B   3,B   0,B  11)           48.67  0.005575   -0.42     48.25   
    30. A(B   2,B   1,B   5)          148.88  0.004978   -0.43    148.45   
    31. A(B   0,B   1,B   5)           91.22  0.005732   -0.50     90.72   
    32. A(B   2,B   1,B   6)          142.18 -0.006573    0.58    142.76   
    33. A(B   0,B   1,B   2)           59.60 -0.000258    0.02     59.62   
    34. A(B   0,B   1,B   6)          153.33  0.007958   -0.70    152.62   
    35. A(B   5,B   1,B   6)           63.50  0.002238   -0.21     63.30   
    36. A(B   0,B   2,B   9)          138.60 -0.000285    0.05    138.65   
    37. A(B   0,B   2,B   1)           64.85  0.000447   -0.07     64.78   
    38. A(B   8,B   2,B   9)           50.27 -0.000519    0.08     50.35   
    39. A(B   1,B   2,B   8)          104.43  0.000693   -0.09    104.34   
    40. A(B   0,B   2,B   8)          166.07  0.001557   -0.19    165.88   
    41. A(B   1,B   2,B   9)          153.91  0.000218   -0.02    153.89   
    42. A(B   4,B   3,B  11)          142.54 -0.011898    0.96    143.50   
    43. A(B   0,B   3,B  11)           77.26 -0.006561    0.49     77.75   
    44. A(B   0,B   3,B   4)           66.51 -0.005074    0.45     66.96   
    45. A(B   3,B   4,B   5)          146.85 -0.001046    0.15    147.01   
    46. A(B   0,B   4,B   3)           56.00  0.000201   -0.00     56.00   
    47. A(B   0,B   4,B   5)           90.90 -0.001236    0.16     91.06   
    48. A(B   1,B   5,B   6)           49.97  0.005847   -0.49     49.48   
    49. A(B   1,B   5,B   4)           88.02 -0.001323    0.10     88.12   
    50. A(B   4,B   5,B   6)          137.13  0.004547   -0.39    136.74   
    51. A(B   1,B   6,B   7)           75.42  0.011187   -0.96     74.46   
    52. A(B   5,B   6,B   7)          141.63  0.003469   -0.30    141.34   
    53. A(B   1,B   6,B   5)           66.53 -0.008085    0.69     67.22   
    54. A(B   6,B   7,B   8)          146.00 -0.019678    1.62    147.61   
    55. A(B   2,B   8,B   7)           68.03  0.014395   -1.16     66.87   
    56. A(B   2,B   8,B   9)           50.71  0.004366   -0.41     50.30   
    57. A(B   7,B   8,B   9)          118.57  0.018981   -1.59    116.99   
    58. A(B   8,B   9,B  10)          155.74  0.001350   -0.17    155.57   
    59. A(B   2,B   9,B  10)           77.95  0.005077   -0.48     77.47   
    60. A(B   2,B   9,B   8)           79.03 -0.003847    0.33     79.36   
    61. A(B   9,B  10,B  11)          130.31 -0.003533    0.31    130.61   
    62. A(B   0,B  11,B   3)           54.07  0.000986   -0.07     54.00   
    63. A(B   0,B  11,B  10)           85.68  0.006403   -0.48     85.19   
    64. A(B   3,B  11,B  10)          138.66  0.007476   -0.56    138.10   
    65. D(B   2,B   1,B   0,B  11)     20.28 -0.003955    0.36     20.64   
    66. D(B   6,B   1,B   0,B   2)   -150.72  0.003362   -0.29   -151.01   
    67. D(B   6,B   1,B   0,B   4)     17.52  0.002428   -0.21     17.31   
    68. D(B   2,B   1,B   0,B   4)    168.23 -0.000934    0.08    168.32   
    69. D(B   2,B   1,B   0,B   3)    164.48 -0.002239    0.21    164.70   
    70. D(B   6,B   1,B   0,B   3)     13.77  0.001123   -0.08     13.69   
[...]

  6 B s       :     3.365151  s :     3.365151
      pz      :     0.439859  p :     1.860509
      px      :     0.738976
      py      :     0.681674
      dz2     :     0.003902  d :     0.044732
      dxz     :     0.007321
      dyz     :     0.005495
      dx2y2   :     0.014227
      dxy     :     0.013788

  7 B s       :     3.193968  s :     3.193968
      pz      :     0.439717  p :     1.573005
      px      :     0.563757
      py      :     0.569531
      dz2     :     0.003396  d :     0.047726
      dxz     :     0.006809
      dyz     :     0.006847
      dx2y2   :     0.015451
      dxy     :     0.015223

  8 B s       :     3.364494  s :     3.364494
      pz      :     0.438471  p :     1.860782
      px      :     0.621365
      py      :     0.800945
      dz2     :     0.003871  d :     0.044726
      dxz     :     0.009542
      dyz     :     0.003201
      dx2y2   :     0.014857
      dxy     :     0.013255

  9 B s       :     3.364192  s :     3.364192
      pz      :     0.437817  p :     1.860327
      px      :     0.815590
      py      :     0.606921
      dz2     :     0.003850  d :     0.044721
      dxz     :     0.003011
      dyz     :     0.009711
      dx2y2   :     0.014719
      dxy     :     0.013432

 10 B s       :     3.194497  s :     3.194497
      pz      :     0.438185  p :     1.571832
      px      :     0.568754
      py      :     0.564893
      dz2     :     0.003379  d :     0.047709
      dxz     :     0.006809
      dyz     :     0.006787
      dx2y2   :     0.015432
      dxy     :     0.015301

 11 B s       :     3.364138  s :     3.364138
      pz      :     0.438113  p :     1.860490
      px      :     0.662381
      py      :     0.759995
      dz2     :     0.003855  d :     0.044727
      dxz     :     0.005975
      dyz     :     0.006759
      dx2y2   :     0.014023
      dxy     :     0.014115



                     *******************************
                     * LOEWDIN POPULATION ANALYSIS *
                     *******************************

----------------------
LOEWDIN ATOMIC CHARGES
----------------------
   0 B :   -0.058035
   1 B :   -0.058496
   2 B :   -0.058210
   3 B :   -0.000746
   4 B :    0.059549
   5 B :   -0.000730
   6 B :   -0.000389
   7 B :    0.059246
   8 B :   -0.000549
   9 B :   -0.000532
  10 B :    0.059469
  11 B :   -0.000578

-------------------------------
LOEWDIN REDUCED ORBITAL CHARGES
-------------------------------
  0 B s       :     2.558806  s :     2.558806
      pz      :     0.653948  p :     2.277483
      px      :     0.838567
      py      :     0.784968
      dz2     :     0.021086  d :     0.221746
      dxz     :     0.025655
      dyz     :     0.025319
      dx2y2   :     0.080760
      dxy     :     0.068927

  1 B s       :     2.558583  s :     2.558583
      pz      :     0.654704  p :     2.277898
      px      :     0.787363
      py      :     0.835831
      dz2     :     0.021152  d :     0.222015
      dxz     :     0.025473
      dyz     :     0.025782
      dx2y2   :     0.078231
      dxy     :     0.071377

  2 B s       :     2.558720  s :     2.558720
      pz      :     0.653854  p :     2.277596
      px      :     0.809468
      py      :     0.814274
      dz2     :     0.021080  d :     0.221894
      dxz     :     0.025438
      dyz     :     0.025497
      dx2y2   :     0.065578
      dxy     :     0.084302

  3 B s       :     2.787735  s :     2.787735
      pz      :     0.474360  p :     2.104858
      px      :     0.671401
      py      :     0.959097
      dz2     :     0.011315  d :     0.108153
      dxz     :     0.018007
      dyz     :     0.009243
      dx2y2   :     0.031789
      dxy     :     0.037799

  4 B s       :     2.735960  s :     2.735960
      pz      :     0.462962  p :     2.074949
      px      :     0.817827
      py      :     0.794160
      dz2     :     0.011411  d :     0.129542
      dxz     :     0.015016
      dyz     :     0.014725
      dx2y2   :     0.047068
      dxy     :     0.041321

  5 B s       :     2.787731  s :     2.787731
      pz      :     0.475658  p :     2.104839
      px      :     0.965955
      py      :     0.663226
      dz2     :     0.011309  d :     0.108160
      dxz     :     0.008718
      dyz     :     0.018718
      dx2y2   :     0.031927
      dxy     :     0.037488

  6 B s       :     2.787971  s :     2.787971
      pz      :     0.475366  p :     2.104267
      px      :     0.837275
      py      :     0.791626
      dz2     :     0.011306  d :     0.108151
      dxz     :     0.015529
      dyz     :     0.011905
      dx2y2   :     0.036000
      dxy     :     0.033411

  7 B s       :     2.735618  s :     2.735618
      pz      :     0.462946  p :     2.075447
      px      :     0.672719
      py      :     0.939783
      dz2     :     0.011427  d :     0.129689
      dxz     :     0.013057
      dyz     :     0.016689
      dx2y2   :     0.042453
      dxy     :     0.046064

  8 B s       :     2.787891  s :     2.787891
      pz      :     0.473820  p :     2.104505
      px      :     0.709256
      py      :     0.921429
      dz2     :     0.011312  d :     0.108154
      dxz     :     0.019484
      dyz     :     0.007689
      dx2y2   :     0.037231
      dxy     :     0.032438

  9 B s       :     2.787909  s :     2.787909
      pz      :     0.473101  p :     2.104481
      px      :     0.936789
      py      :     0.694591
      dz2     :     0.011285  d :     0.108142
      dxz     :     0.007380
      dyz     :     0.019728
      dx2y2   :     0.036617
      dxy     :     0.033133

 10 B s       :     2.735763  s :     2.735763
      pz      :     0.461349  p :     2.075119
      px      :     0.928890
      py      :     0.684880
      dz2     :     0.011439  d :     0.129649
      dxz     :     0.016391
      dyz     :     0.013091
      dx2y2   :     0.043309
      dxy     :     0.045418

 11 B s       :     2.787995  s :     2.787995
      pz      :     0.473468  p :     2.104423
      px      :     0.770041
      py      :     0.860915
      dz2     :     0.011282  d :     0.108159
      dxz     :     0.012710
      dyz     :     0.014450
      dx2y2   :     0.035273
      dxy     :     0.034443



                      *****************************
                      * MAYER POPULATION ANALYSIS *
                      *****************************

  NA   - Mulliken gross atomic population
  ZA   - Total nuclear charge
  QA   - Mulliken gross atomic charge
  VA   - Mayer's total valence
  BVA  - Mayer's bonded valence
  FA   - Mayer's free valence

  ATOM       NA         ZA         QA         VA         BVA        FA
  0 B      4.6479     5.0000     0.3521     2.8211     2.8211    -0.0000
  1 B      4.6427     5.0000     0.3573     2.8146     2.8146     0.0000
  2 B      4.6471     5.0000     0.3529     2.8195     2.8195     0.0000
  3 B      5.2697     5.0000    -0.2697     3.2812     3.2812    -0.0000
  4 B      4.8147     5.0000     0.1853     3.3150     3.3150    -0.0000
  5 B      5.2702     5.0000    -0.2702     3.2800     3.2800    -0.0000
  6 B      5.2704     5.0000    -0.2704     3.2794     3.2794    -0.0000
  7 B      4.8147     5.0000     0.1853     3.3160     3.3160    -0.0000
  8 B      5.2700     5.0000    -0.2700     3.2799     3.2799    -0.0000
  9 B      5.2692     5.0000    -0.2692     3.2801     3.2801    -0.0000
 10 B      4.8140     5.0000     0.1860     3.3155     3.3155    -0.0000
 11 B      5.2694     5.0000    -0.2694     3.2803     3.2803    -0.0000

  Mayer bond orders larger than 0.100000
B(  0-B ,  1-B ) :   0.4780 B(  0-B ,  2-B ) :   0.4792 B(  0-B ,  3-B ) :   0.5083 
B(  0-B ,  4-B ) :   0.4392 B(  0-B , 10-B ) :   0.4404 B(  0-B , 11-B ) :   0.5077 
B(  1-B ,  2-B ) :   0.4773 B(  1-B ,  4-B ) :   0.4384 B(  1-B ,  5-B ) :   0.5064 
B(  1-B ,  6-B ) :   0.5062 B(  1-B ,  7-B ) :   0.4388 B(  2-B ,  7-B ) :   0.4401 
B(  2-B ,  8-B ) :   0.5075 B(  2-B ,  9-B ) :   0.5079 B(  2-B , 10-B ) :   0.4392 
B(  3-B ,  4-B ) :   1.0808 B(  3-B , 11-B ) :   1.4828 B(  4-B ,  5-B ) :   1.0815 
B(  5-B ,  6-B ) :   1.4834 B(  6-B ,  7-B ) :   1.0812 B(  7-B ,  8-B ) :   1.0807 
B(  8-B ,  9-B ) :   1.4829 B(  9-B , 10-B ) :   1.0798 B( 10-B , 11-B ) :   1.0802 


-------
TIMINGS
-------

Total SCF time: 0 days 0 hours 0 min 7 sec 

Total time                  ....       7.645 sec
Sum of individual times     ....       5.555 sec  ( 72.7%)

SCF preparation             ....       0.726 sec  (  9.5%)
Fock matrix formation       ....       3.873 sec  ( 50.7%)
  Startup                   ....       0.010 sec  (  0.2% of F)
  Split-RI-J                ....       1.357 sec  ( 35.0% of F)
  XC integration            ....       3.417 sec  ( 88.2% of F)
    XC Preparation          ....       0.000 sec  (  0.0% of XC)
    Basis function eval.    ....       0.493 sec  ( 14.4% of XC)
    Density eval.           ....       0.327 sec  (  9.6% of XC)
    XC-Functional eval.     ....       0.052 sec  (  1.5% of XC)
    XC-Potential eval.      ....       0.378 sec  ( 11.1% of XC)
Diagonalization             ....       0.000 sec  (  0.0%)
Density matrix formation    ....       0.151 sec  (  2.0%)
Total Energy calculation    ....       0.129 sec  (  1.7%)
Population analysis         ....       0.217 sec  (  2.8%)
Orbital Transformation      ....       0.022 sec  (  0.3%)
Orbital Orthonormalization  ....       0.000 sec  (  0.0%)
DIIS solution               ....       0.024 sec  (  0.3%)
SOSCF solution              ....       0.413 sec  (  5.4%)
Finished LeanSCF after   7.9 sec

Maximum memory used throughout the entire LEANSCF-calculation: 13.1 MB


-------------------------------------------------------------------------------
                          DFT DISPERSION CORRECTION                            
                                                                               
                              DFTD3 V3.1  Rev 1                                
                          USING Becke-Johnson damping                          
-------------------------------------------------------------------------------
The BP86 functional is recognized
Active option DFTDOPT                   ...         4   

molecular C6(AA) [au] = 4351.750835 


            DFT-D V3
 parameters
 s6 scaling factor         :     1.0000 
 a1 scaling factor         :     0.3946 
 s8 scaling factor         :     3.2822 
 a2 scaling factor         :     4.8516 
 ad hoc parameters k1-k3   :    16.0000     1.3333    -4.0000 

 Edisp/kcal,au: -20.738909924807  -0.033049553146 
 E6   /kcal   :  -5.977456407 
 E8   /kcal   : -14.761453518 
 % E8         :  71.177576699 

-------------------------   ----------------
Dispersion correction           -0.033049553
-------------------------   ----------------


-------------------------   --------------------
FINAL SINGLE POINT ENERGY      -297.750639721099
-------------------------   --------------------

                                *** OPTIMIZATION RUN DONE ***



           ************************************************************
           *        Program running with 8 parallel MPI-processes     *
           *              working on a common directory               *
           ************************************************************

------------------------------------------------------------------------------
                              ORCA PROPERTY CALCULATIONS
------------------------------------------------------------------------------

GBWName                                 ... quasi_planar_nn1.70_perturb1.gbw
Number of atoms                         ...     12
Number of basis functions               ...    168
Max core memory                         ...   2500 MB

Electric properties:
Dipole moment                           ... YES
Quadrupole moment                       ...  NO
Static polarizability (Dipole/Dipole)   ...  NO
Static polarizability (Dipole/Quad.)    ...  NO
Static polarizability (Quad./Quad.)     ...  NO
Static polarizability (Velocity)        ...  NO
Static hyperpolarizability              ...  NO

Atomic electric properties:
Dipole moment                           ...  NO
Quadrupole moment                       ...  NO
Static polarizability                   ...  NO

Choice of electric origin               ... Center of mass
Position of electric origin             ...    -0.032320     0.026208     0.053300

General magnetic properties:
Magnetizability                         ...  NO

EPR properties:
g-Tensor (aka g-matrix)                 ...  NO
Zero-Field splitting spin-orbit         ...  NO
Zero-field splitting spin-spin          ...  NO
Hyperfine couplings                     ...  NO (   0 nuclei)
Quadrupole couplings                    ...  NO (   0 nuclei)
Contact density                         ...  NO (   0 nuclei)

NMR properties:
Chemical shifts                         ...  NO (   0 nuclei)
Spin-rotation constants                 ...  NO (   0 nuclei)
Spin-spin couplings                     ...  NO (   0 nuclei,    0 pairs)

Choice of magnetic origin               ... GIAO
Position of magnetic origin             ...     0.000000     0.000000     0.000000

Properties with geometric perturbations:
SCF Hessian                             ...  NO
IR spectrum                             ...  NO
VCD spectrum                            ...  NO
X-ray spectroscopy properties:
SCF XES/XAS/RIXS spectra                ...  NO

SCF SOC stabilization energy            ...  NO
Diagonal Born-Oppenheimer correction    ...  NO

-------------
DIPOLE MOMENT
-------------

Method             : SCF
Type of density    : Electron Density
Multiplicity       :   1
Irrep              :   0
Energy             :  -297.7175901679534604 Eh
Basis              : AO
                                X                 Y                 Z
Electronic contribution:     -0.000393004       0.003412950       0.777251735
Nuclear contribution   :      0.000000000       0.000000000      -0.000000000
                        -----------------------------------------
Total Dipole Moment    :     -0.000393004       0.003412950       0.777251735
                        -----------------------------------------
Magnitude (a.u.)       :      0.777259328
Magnitude (Debye)      :      1.975636205



--------------------
Rotational spectrum 
--------------------
 
Rotational constants in cm-1:             0.058816             0.058806             0.030099 
Rotational constants in MHz :          1763.248938          1762.958717           902.338586 

Dipole components along the rotational axes: 
x,y,z [a.u.] :     0.000017    -0.001004     0.777259 
x,y,z [Debye]:     0.000042    -0.002551     1.975635 

 

Dipole moment calculation done in   0.1 sec 

Maximum memory used throughout the entire PROP-calculation: 10.5 MB

--------------------------------
SUGGESTED CITATIONS FOR THIS RUN
--------------------------------

Below you find a list of papers that are relevant to this ORCA run
We neither can nor want to force you to cite these papers, but we appreciate if you do
You receive ORCA, which is the product of decades of hard work by many enthusiastic individuals, for free
The only thing we kindly ask in return is that you cite our papers,
We deeply appreciate it, if you show your appreciation for ORCA by not just citing the generic ORCA reference.

Please note that relegating all ORCA citations to the supporting information does *not* help us.
SI sections are not indexed - citations you put there will not count into any citation statistics
But we need these citations in order to attract the funding resources that allow us to do what we are doing

Therefore, if you are a happy ORCA user, please consider citing a few of the papers listed below in the main body of your paper

In addition to the list printed below, the program has created the file quasi_planar_nn1.70_perturb1.bibtex that contains the list in bibtex format
You can import this file easily into all common literature databanks and citation aid programs

It goes without saying that in many instances, there are alternative algorithms to achieve similar
results as the ones you have gotten from ORCA. It is, of course, also the case that in some instances
ORCA just re-implements algorithms worked out by others. We are fully aware of that and we are also
fully appreciative of our colleagues work. Hence this citation list should not be read as indicating
that the listed papers, which are focused on our own work, are the only ones worth citing. It simply
meant to make it easier for users to cite ORCA specific papers. It is not a substitute for doing your
own literature research and citing the relevant literature in a scientifically appropriate manner.

List of essential papers. We consider these as the minimum necessary citations

  1. Neese, F.
     Software update: the ORCA program system, version 6.0
     WIRES Comput. Molec. Sci. 2025 15(1), e70019
     doi.org/10.1002/wcms.70019

List of papers to cite with high priority. The work reported in these papers was absolutely
necessary for this run to complete.
Our perspective: the developers of density functionals and basis sets usually get cited in chemistry papers
Good! But without the algorithms to do something with them, the functionals or basis sets would not do anything.
Hence, in our opinion, the algorithm design and method developments papers are equally worthy of getting cited

  1. Neese, F.
     An improvement of the resolution of the identity approximation for the formation of the Coulomb matrix
     J. Comp. Chem. 2003 24(14), 1740-1747
     doi.org/10.1002/jcc.10318
  2. Grimme, S.; Antony, J.; Ehrlich, S.; Krieg, H.
     A consistent and accurate ab initio parametrization of density functional dispersion correction (DFT-D) for the 94 elements H-Pu
     J. Chem. Phys. 2010 132 , 154104
     doi.org/10.1063/1.3382344
  3. Grimme, S.; Ehrlich, S.; Goerigk, L.
     Effect of the damping function in dispersion corrected density functional theory
     J. Comput. Chem. 2011 32(7), 1456-1465
     doi.org/10.1002/jcc.21759
  4. Neese, F.
     The SHARK Integral Generation and Digestion System
     J. Comp. Chem. 2022 44(3), 381
     doi.org/10.1002/jcc.26942

List of suggested additional citations. These are papers that are important in the 'surrounding' of 
of this run, or papers that preceded the highly important papers. If you like your results we are grateful for a citation.

  1. Neese, F.
     The ORCA program system
     WIRES Comput. Molec. Sci. 2012 2(1), 73-78
     doi.org/10.1002/wcms.81
  2. Neese, F.
     Software update: the ORCA program system, version 4.0
     WIRES Comput. Molec. Sci. 2018 8(1), 1-6
     doi.org/10.1002/wcms.1327
  3. Neese, F.; Wennmohs, F.; Becker, U.; Riplinger, C.
     The ORCA quantum chemistry program package
     J. Chem. Phys. 2020 152(22), 224108
     doi.org/10.1063/5.0004608
  4. Neese, F.
     Software update: The ORCA program system—Version 5.0
     WIRES Comput. Molec. Sci. 2022 12(1), e1606
     doi.org/10.1002/wcms.1606

List of optional additional citations

  1. Neese, F.
     Approximate second-order SCF convergence for spin unrestricted wavefunctions
     Chem. Phys. Lett. 2000 325(1-3), 93-98
     doi.org/10.1016/s0009-2614(00)00662-x

Timings for individual modules:

Sum of individual times          ...      908.489 sec (=  15.141 min)
Startup calculation              ...      126.007 sec (=   2.100 min)  13.9 %
SCF iterations                   ...      614.474 sec (=  10.241 min)  67.6 %
Property calculations            ...        1.177 sec (=   0.020 min)   0.1 %
SCF Gradient evaluation          ...      165.024 sec (=   2.750 min)  18.2 %
Geometry relaxation              ...        1.806 sec (=   0.030 min)   0.2 %
                             ****ORCA TERMINATED NORMALLY****
TOTAL RUN TIME: 0 days 0 hours 16 minutes 7 seconds 977 msec
