
                                 *****************
                                 * O   R   C   A *
                                 *****************

                                            #,                                       
                                            ###                                      
                                            ####                                     
                                            #####                                    
                                            ######                                   
                                           ########,                                 
                                     ,,################,,,,,                         
                               ,,#################################,,                 
                          ,,##########################################,,             
                       ,#########################################, ''#####,          
                    ,#############################################,,   '####,        
                  ,##################################################,,,,####,       
                ,###########''''           ''''###############################       
              ,#####''   ,,,,##########,,,,          '''####'''          '####       
            ,##' ,,,,###########################,,,                        '##       
           ' ,,###''''                  '''############,,,                           
         ,,##''                                '''############,,,,        ,,,,,,###''
      ,#''                                            '''#######################'''  
     '                                                          ''''####''''         
             ,#######,   #######,   ,#######,      ##                                
            ,#'     '#,  ##    ##  ,#'     '#,    #''#        ,####,    ,#,          
            ##       ##  ##   ,#'  ##            #'  '#       #'       ,# #          
            ##       ##  #######   ##           ,######,      #####,      #          
            '#,     ,#'  ##    ##  '#,     ,#' ,#      #,     #,   #      #          
             '#######'   ##     ##  '#######'  #'      '#     '####' #    #          



                #########################################################
                #                        -***-                          #
                #          Department of theory and spectroscopy        #
                #                                                       #
                #                      Frank Neese                      #
                #                                                       #
                #     Directorship, Architecture, Infrastructure        #
                #                    SHARK, DRIVERS                     #
                #        Core code/Algorithms in most modules           #
                #                                                       #
                #        Max Planck Institute fuer Kohlenforschung      #
                #                Kaiser Wilhelm Platz 1                 #
                #                 D-45470 Muelheim/Ruhr                 #
                #                      Germany                          #
                #                                                       #
                #                  All rights reserved                  #
                #                        -***-                          #
                #########################################################


                         Program Version 6.1.1  -  RELEASE   -
                                (GIT: $487d211c$)
                          ($2025-11-21 10:33:24 +0100$)
                                                                         
                                  - NO-DMRG VERSION -                    
                                                                         


 With contributions from (in alphabetic order):
[Max-Planck-Institut fuer Kohlenforschung]                               
  Daniel Aravena         : Magnetic Suceptibility                        
  Michael Atanasov       : Ab Initio Ligand Field Theory (pilot matlab implementation)
  Alexander A. Auer      : GIAO ZORA, VPT2 properties, NMR spectrum      
  Ute Becker             : All parallelization in ORCA, NUMFREQ, NUMCALC 
  Giovanni Bistoni       : ED, misc. LED, open-shell LED, HFLD           
  Dmytro Bykov           : pre 5.0 version of the SCF Hessian            
  Marcos Casanova-Páez   : Triplet and SCS-CIS(D). UHF-(DLPNO)-IP/EA/STEOM-CCSD. UHF-CVS-IP/STEOM-CCSD   
  Vijay G. Chilkuri      : MRCI spin determinant printing, contributions to CSF-ICE 
  Pauline Colinet        : FMM embedding                                 
  Dipayan Datta          : RHF DLPNO-CCSD density                        
  Achintya Kumar Dutta   : EOM-CC, STEOM-CC                              
  Nicolas Foglia         : Exact transition moments, OPA infrastructure, MCD improvements    
  Dmitry Ganyushin       : Spin-Orbit,Spin-Spin,Magnetic field MRCI      
  Miquel Garcia-Rates    : C-PCM and meta-GGA Hessian, CCSD/C-PCM, Gaussian charge scheme 
  Tiago L. C. Gouveia    : GS-ROHF, GS-ROCIS                             
  Yang Guo               : DLPNO-NEVPT2, F12-NEVPT2, CIM, IAO-localization        
  Andreas Hansen         : Spin unrestricted coupled pair/coupled cluster methods 
  Ingolf Harden          : AUTO-CI MPn and infrastructure                
  Benjamin Helmich-Paris : MC-RPA, TRAH-(SCF,CASSCF), AVAS, COSX integrals, SCF dyn. polar., MC-PDFT, srDFT 
  Lee Huntington         : MR-EOM, pCC                                   
  Robert Izsak           : Overlap fitted RIJCOSX, COSX-SCS-MP3, EOM     
  Riya Kayal             : Wick's Theorem for AUTO-CI, AUTO-CI UHF-CCSDT 
  Emily Kempfer          : AUTO-CI RHF CISDT and CCSDT, approximate NEVPT4
  Christian Kollmar      : KDIIS, OOCD, Brueckner-CCSD(T), CCSD density, CASPT2, CASPT2-K, improved NEVPT2 
  Axel Koslowski         : Symmetry handling                             
  Simone Kossmann        : meta-GGA functionals, TD-DFT gradient, OOMP2, (MP2 Hessian; deprecated post 5.0) 
  Lucas Lang             : DCDCAS, Hyperfine gauge corrections, ICE-SOC+SSC
  Marvin Lechner         : AUTO-CI (C++ implementation), FIC-MRCC        
  Spencer Leger          : CASSCF response                               
  Dagmar Lenk            : GEPOL surface, SMD, ORCA-2-JSON               
  Dimitrios Liakos       : Extrapolation schemes; Compound Job, Property file
  Dimitrios Manganas     : Further ROCIS development; embedding schemes. LFT, Crystal Embedding 
  Dimitrios Pantazis     : SARC Basis sets                               
  Anastasios Papadopoulos: AUTO-CI, single reference methods and gradients 
  Taras Petrenko         : pre 6.0 DFT Hessian and TD-DFT gradient,  ECA, NRVS 
  Petra Pikulova         : Analytic Raman intensities                    
  Peter Pinski           : DLPNO-MP2, DLPNO-MP2 Gradient                 
  Shashank Vittal Rao    : ES-AILFT, MagRelax                            
  Christoph Reimann      : Effective Core Potentials                     
  Marius Retegan         : Local ZFS, SOC                                
  Christoph Riplinger    : Optimizer, TS searches, QM/MM, DLPNO-CCSD(T), (RO)-DLPNO pert. Triples 
  Michael Roemelt        : Original ROCIS implementation, recursive CI coupling coefficients
  Masaaki Saitow         : Open-shell DLPNO-CCSD energy and density      
  Barbara Sandhoefer     : DKH picture change effects                    
  Yorick L. A. Schmerwitz: GMF and freeze-and-release deltaSCF, NEB S-IDPP initial path                    
  Kantharuban Sivalingam : CASSCF convergence/infrastructure, NEVPT2, NEVPT3, NEVPT4(SD), FIC-MRCI and CEPA variants
  Bernardo de Souza      : ESD, SOC TD-DFT                               
  Georgi L. Stoychev     : AutoAux, RI-MP2 NMR, DLPNO-MP2 response, X2C  
  Van Anh Tran           : RI-MP2 g-tensors                              
  Willem Van den Heuvel  : Paramagnetic NMR                              
  Zikuan Wang            : NOTCH, Electric field optimization            
  Frank Wennmohs         : Technical directorship and infrastructure     
  Hang Xu                : AUTO-CI-Response properties                   
                                                                         
[FACCTs GmbH]                                                            
  Markus Bursch, Nicolas Foglia, Miquel Garcia-Rates, Ingolf Harden, Hagen Neugebauer, Anastasios Papadopoulos, 
  Christoph Riplinger, Bernardo de Souza, Georgi L. Stoychev                                                    
                                                                 
  APM, various basis sets, CI-OPT, improved COSX, DLPNO-Multilevel,           
  DOCKER, DRACO, updates on ESD, Fragmentator, GOAT, IRC, LR-CPCM, L-BFGS, MBIS, meta-GGA TD-DFT gradient, ML-optimized integration grids, 
  MM, NACMEs, nearIR, NEB, NEB-TS, NL-DFT gradient (VV10), 2- and 3-layer-ONIOM, interface openCOSMO-RS, QMMM,   
  Crystal-QMMM, RESP, rigid body optimization, SF, symmetry and pop. for TD-DFT, various functionals, SOLVATOR                                   
                                                                         
[Other institutions]                                                     
  V. Asgeirsson          : NEB                                           
  Christoph Bannwarth    : sTDA-DFT, sTD-DFT, PBEh-3c, B97-3c, D3        
  Giovanni Bistoni       : ETS/NOCV, ADLD/ADEX, COVALED                  
  Martin Brehm           : Molecular dynamics                            
  Ronald Cardenas        : ETS/NOCV                                      
  Martina Colucci        : COVALED                                       
  Sebastian Ehlert       : rSCAN, r2SCAN, r2SCAN-3c, D4, dhf basis sets  
  Marvin Friede          : D4 for Fr, Ra, Ac-Lr                          
  Lars Goerigk           : TD-DFT with DH, B97 family of functionals     
  Stefan Grimme          : VdW corrections, initial TS optimization, DFT functionals, gCP, sTDA/sTD-DF 
  Waldemar Hujo          : DFT-NL                                        
  H. Jonsson             : NEB                                           
  Holger Kruse           : gCP                                           
  Marcel Mueller         : wB97X-3c, vDZP basis set                      
  Hagen Neugebauer       : wr2SCAN, Native XTB                           
  Gianluca Regni         : ADLD/ADEX                                     
  Tobias Risthaus        : pre 6.0 range-separated hybrid DFT and stability analysis
  Lukas Wittmann         : regularized MP2, r2SCAN double-hybrids, wr2SCAN        
                                                                         
We gratefully acknowledge several colleagues who have allowed us to      
interface, adapt or use parts of their codes:                            
  Ed Valeev, F. Pavosevic, A. Kumar             : LibInt (2-el integral package), F12 methods 
  Garnet Chan, S. Sharma, J. Yang, R. Olivares  : DMRG                   
  Ulf Ekstrom                                   : XCFun DFT Library      
  Mihaly Kallay                                 : mrcc  (arbitrary order and MRCC methods)
  Frank Weinhold                                : gennbo (NPA and NBO analysis)           
  Simon Mueller                                 : openCOSMO-RS                            
  Christopher J. Cramer and Donald G. Truhlar   : smd solvation model                     
  S Lehtola, MJT Oliveira, MAL Marques          : LibXC Library                           
  Liviu Ungur et al                             : ANISO software                          


 Your calculation uses the libint2 library for the computation of 2-el integrals
 For citations please refer to: http://libint.valeyev.net

 Your ORCA version has been built with support for libXC version: 7.0.0
 For citations please refer to: https://libxc.gitlab.io

 This ORCA versions uses:
   CBLAS   interface :  Fast vector & matrix operations
   LAPACKE interface :  Fast linear algebra routines
   SCALAPACK package :  Parallel linear algebra routines
   Shared memory     :  Shared parallel matrices
   BLAS/LAPACK       :  OpenBLAS 0.3.29  USE64BITINT DYNAMIC_ARCH NO_AFFINITY Zen SINGLE_THREADED
        Core in use  :  Zen
   Copyright (c) 2011-2014, The OpenBLAS Project


  ***********************************
  * Starting time: Thu Apr 23 17:50:28 2026
  * Host name:     vmi3233575
  * Process ID:    1379631
  * Working dir.:  /root/b12_scan/jobs/icosahedron_nn2.00
  ***********************************

NOTE: MaxCore=2500 MB was set to SCF,MP2,MDCI,CIPSI,MRCI,RASCI and CIS
      => If you want to overwrite this, your respective input block should be placed after the MaxCore statement
Your calculation utilizes the atom-pairwise dispersion correction
with the Becke-Johnson damping scheme (D3BJ)


================================================================================

----- Orbital basis set information -----
Your calculation utilizes the basis: def2-SVP
   F. Weigend and R. Ahlrichs, Phys. Chem. Chem. Phys. 7, 3297 (2005).

----- AuxJ basis set information -----
Your calculation utilizes the auxiliary basis: def2/J
   H-Rn: F. Weigend, Phys. Chem. Chem. Phys. 8, 1057 (2006).
   Fr-Lr: K. Eichkorn, F. Weigend, O. Treutler, R. Ahlrichs; Theor. Chem. Acc. 97, 119 (1997).

================================================================================
                                        WARNINGS
                       Please study these warnings very carefully!
================================================================================


WARNING: Geometry Optimization
  ===> : Switching off AutoStart
         For restart on a previous wavefunction, please use MOREAD

================================================================================
                                       INPUT FILE
================================================================================
NAME = icosahedron_nn2.00.inp
|  1> ! BP86 def2-SVP def2/J RI Opt TightSCF D3BJ
|  2> ! SlowConv
|  3> 
|  4> %pal nprocs 8 end
|  5> %maxcore 2500
|  6> 
|  7> %geom
|  8>   MaxIter 300
|  9> end
| 10> 
| 11> * xyz 0 1
| 12> B      0.00000000     -1.00000000     -1.61803399
| 13> B     -1.00000000     -1.61803399      0.00000000
| 14> B     -1.61803399      0.00000000     -1.00000000
| 15> B      0.00000000     -1.00000000      1.61803399
| 16> B     -1.00000000      1.61803399      0.00000000
| 17> B      1.61803399      0.00000000     -1.00000000
| 18> B      0.00000000      1.00000000     -1.61803399
| 19> B      1.00000000     -1.61803399      0.00000000
| 20> B     -1.61803399      0.00000000      1.00000000
| 21> B      0.00000000      1.00000000      1.61803399
| 22> B      1.00000000      1.61803399      0.00000000
| 23> B      1.61803399      0.00000000      1.00000000
| 24> *
| 25> 
| 26>                          ****END OF INPUT****
================================================================================

                       *****************************
                       * Geometry Optimization Run *
                       *****************************

Geometry optimization settings:
Update method            Update   .... BFGS
Choice of coordinates    CoordSys .... (2022) Redundant Internals
Initial Hessian          InHess   .... Almloef's Model
Max. no of cycles        MaxIter  .... 300

Convergence Tolerances:
Energy Change            TolE     ....  5.0000e-06 Eh
Max. Gradient            TolMAXG  ....  3.0000e-04 Eh/bohr
RMS Gradient             TolRMSG  ....  1.0000e-04 Eh/bohr
Max. Displacement        TolMAXD  ....  4.0000e-03 bohr
RMS Displacement         TolRMSD  ....  2.0000e-03 bohr
Strict Convergence                .... False

------------------------------------------------------------------------------
                        ORCA OPTIMIZATION COORDINATE SETUP
------------------------------------------------------------------------------

The optimization will be done in redundant internal coordinates (2022)
Making redundant internal coordinates   ...  (2022 redundants) done
Evaluating the initial hessian          ...  (Almloef) done
Evaluating the coordinates              ...  done
Calculating the B-matrix                .... done
Calculating the G-matrix                .... done
The number of degrees of freedom        ....  390

    -----------------------------------------------------------------
                    Redundant Internal Coordinates


    -----------------------------------------------------------------
         Definition                    Initial Value    Approx d2E/dq
    -----------------------------------------------------------------
      1. B(B   1,B   0)                  2.0000         0.089157   
      2. B(B   2,B   0)                  2.0000         0.089157   
      3. B(B   2,B   1)                  2.0000         0.089157   
      4. B(B   3,B   1)                  2.0000         0.089157   
      5. B(B   4,B   2)                  2.0000         0.089157   
      6. B(B   5,B   0)                  2.0000         0.089157   
      7. B(B   6,B   5)                  2.0000         0.089157   
      8. B(B   6,B   4)                  2.0000         0.089157   
      9. B(B   6,B   2)                  2.0000         0.089157   
     10. B(B   6,B   0)                  2.0000         0.089157   
     11. B(B   7,B   5)                  2.0000         0.089157   
     12. B(B   7,B   3)                  2.0000         0.089157   
     13. B(B   7,B   1)                  2.0000         0.089157   
     14. B(B   7,B   0)                  2.0000         0.089157   
     15. B(B   8,B   1)                  2.0000         0.089157   
     16. B(B   8,B   4)                  2.0000         0.089157   
     17. B(B   8,B   3)                  2.0000         0.089157   
     18. B(B   8,B   2)                  2.0000         0.089157   
     19. B(B   9,B   8)                  2.0000         0.089157   
     20. B(B   9,B   4)                  2.0000         0.089157   
     21. B(B   9,B   3)                  2.0000         0.089157   
     22. B(B  10,B   9)                  2.0000         0.089157   
     23. B(B  10,B   6)                  2.0000         0.089157   
     24. B(B  10,B   5)                  2.0000         0.089157   
     25. B(B  10,B   4)                  2.0000         0.089157   
     26. B(B  11,B  10)                  2.0000         0.089157   
     27. B(B  11,B   9)                  2.0000         0.089157   
     28. B(B  11,B   7)                  2.0000         0.089157   
     29. B(B  11,B   5)                  2.0000         0.089157   
     30. B(B  11,B   3)                  2.0000         0.089157   
     31. A(B   1,B   0,B   6)          108.0000         0.238665   
     32. A(B   1,B   0,B   5)          108.0000         0.238665   
     33. A(B   1,B   0,B   2)           60.0000         0.238665   
     34. A(B   2,B   0,B   5)          108.0000         0.238665   
     35. A(B   2,B   0,B   7)          108.0000         0.238665   
     36. A(B   5,B   0,B   6)           60.0000         0.238665   
     37. A(B   2,B   0,B   6)           60.0000         0.238665   
     38. A(B   5,B   0,B   7)           60.0000         0.238665   
     39. A(B   6,B   0,B   7)          108.0000         0.238665   
     40. A(B   1,B   0,B   7)           60.0000         0.238665   
     41. A(B   0,B   1,B   3)          108.0000         0.238665   
     42. A(B   7,B   1,B   8)          108.0000         0.238665   
     43. A(B   2,B   1,B   8)           60.0000         0.238665   
     44. A(B   0,B   1,B   8)          108.0000         0.238665   
     45. A(B   0,B   1,B   2)           60.0000         0.238665   
     46. A(B   2,B   1,B   7)          108.0000         0.238665   
     47. A(B   2,B   1,B   3)          108.0000         0.238665   
     48. A(B   3,B   1,B   7)           60.0000         0.238665   
     49. A(B   0,B   1,B   7)           60.0000         0.238665   
     50. A(B   3,B   1,B   8)           60.0000         0.238665   
     51. A(B   0,B   2,B   6)           60.0000         0.238665   
     52. A(B   0,B   2,B   1)           60.0000         0.238665   
     53. A(B   6,B   2,B   8)          108.0000         0.238665   
     54. A(B   4,B   2,B   8)           60.0000         0.238665   
     55. A(B   0,B   2,B   4)          108.0000         0.238665   
     56. A(B   0,B   2,B   8)          108.0000         0.238665   
     57. A(B   1,B   2,B   6)          108.0000         0.238665   
     58. A(B   1,B   2,B   8)           60.0000         0.238665   
     59. A(B   4,B   2,B   6)           60.0000         0.238665   
     60. A(B   1,B   2,B   4)          108.0000         0.238665   
     61. A(B   1,B   3,B   9)          108.0000         0.238665   
     62. A(B   7,B   3,B   9)          108.0000         0.238665   
     63. A(B   9,B   3,B  11)           60.0000         0.238665   
     64. A(B   8,B   3,B  11)          108.0000         0.238665   
     65. A(B   7,B   3,B  11)           60.0000         0.238665   
     66. A(B   1,B   3,B  11)          108.0000         0.238665   
     67. A(B   1,B   3,B   8)           60.0000         0.238665   
     68. A(B   8,B   3,B   9)           60.0000         0.238665   
     69. A(B   7,B   3,B   8)          108.0000         0.238665   
     70. A(B   1,B   3,B   7)           60.0000         0.238665   
     71. A(B   6,B   4,B   9)          108.0000         0.238665   
     72. A(B   2,B   4,B   9)          108.0000         0.238665   
     73. A(B   9,B   4,B  10)           60.0000         0.238665   
     74. A(B   8,B   4,B  10)          108.0000         0.238665   
     75. A(B   2,B   4,B   8)           60.0000         0.238665   
     76. A(B   6,B   4,B   8)          108.0000         0.238665   
     77. A(B   8,B   4,B   9)           60.0000         0.238665   
     78. A(B   6,B   4,B  10)           60.0000         0.238665   
     79. A(B   2,B   4,B  10)          108.0000         0.238665   
     80. A(B   2,B   4,B   6)           60.0000         0.238665   
     81. A(B  10,B   5,B  11)           60.0000         0.238665   
     82. A(B   7,B   5,B  11)           60.0000         0.238665   
     83. A(B   6,B   5,B  11)          108.0000         0.238665   
     84. A(B   0,B   5,B  11)          108.0000         0.238665   
     85. A(B   0,B   5,B   6)           60.0000         0.238665   
     86. A(B   6,B   5,B  10)           60.0000         0.238665   
     87. A(B   0,B   5,B  10)          108.0000         0.238665   
     88. A(B   6,B   5,B   7)          108.0000         0.238665   
     89. A(B   0,B   5,B   7)           60.0000         0.238665   
     90. A(B   7,B   5,B  10)          108.0000         0.238665   
     91. A(B   4,B   6,B   5)          108.0000         0.238665   
     92. A(B   2,B   6,B   5)          108.0000         0.238665   
     93. A(B   0,B   6,B   5)           60.0000         0.238665   
     94. A(B   5,B   6,B  10)           60.0000         0.238665   
     95. A(B   4,B   6,B  10)           60.0000         0.238665   
     96. A(B   2,B   6,B  10)          108.0000         0.238665   
     97. A(B   2,B   6,B   4)           60.0000         0.238665   
     98. A(B   0,B   6,B  10)          108.0000         0.238665   
     99. A(B   0,B   6,B   4)          108.0000         0.238665   
    100. A(B   0,B   6,B   2)           60.0000         0.238665   
    101. A(B   0,B   7,B   1)           60.0000         0.238665   
    102. A(B   5,B   7,B  11)           60.0000         0.238665   
    103. A(B   3,B   7,B  11)           60.0000         0.238665   
    104. A(B   0,B   7,B  11)          108.0000         0.238665   
    105. A(B   3,B   7,B   5)          108.0000         0.238665   
    106. A(B   1,B   7,B   5)          108.0000         0.238665   
    107. A(B   0,B   7,B   5)           60.0000         0.238665   
    108. A(B   1,B   7,B   3)           60.0000         0.238665   
    109. A(B   1,B   7,B  11)          108.0000         0.238665   
    110. A(B   0,B   7,B   3)          108.0000         0.238665   
    111. A(B   3,B   8,B   4)          108.0000         0.238665   
    112. A(B   2,B   8,B   4)           60.0000         0.238665   
    113. A(B   1,B   8,B   4)          108.0000         0.238665   
    114. A(B   2,B   8,B   3)          108.0000         0.238665   
    115. A(B   1,B   8,B   3)           60.0000         0.238665   
    116. A(B   1,B   8,B   2)           60.0000         0.238665   
    117. A(B   4,B   8,B   9)           60.0000         0.238665   
    118. A(B   3,B   8,B   9)           60.0000         0.238665   
    119. A(B   2,B   8,B   9)          108.0000         0.238665   
    120. A(B   1,B   8,B   9)          108.0000         0.238665   
    121. A(B  10,B   9,B  11)           60.0000         0.238665   
    122. A(B   8,B   9,B  11)          108.0000         0.238665   
    123. A(B   4,B   9,B  11)          108.0000         0.238665   
    124. A(B   3,B   9,B  11)           60.0000         0.238665   
    125. A(B   8,B   9,B  10)          108.0000         0.238665   
    126. A(B   4,B   9,B  10)           60.0000         0.238665   
    127. A(B   3,B   9,B  10)          108.0000         0.238665   
    128. A(B   4,B   9,B   8)           60.0000         0.238665   
    129. A(B   3,B   9,B   8)           60.0000         0.238665   
    130. A(B   3,B   9,B   4)          108.0000         0.238665   
    131. A(B   9,B  10,B  11)           60.0000         0.238665   
    132. A(B   5,B  10,B  11)           60.0000         0.238665   
    133. A(B   4,B  10,B  11)          108.0000         0.238665   
    134. A(B   6,B  10,B  11)          108.0000         0.238665   
    135. A(B   6,B  10,B   9)          108.0000         0.238665   
    136. A(B   5,B  10,B   9)          108.0000         0.238665   
    137. A(B   4,B  10,B   9)           60.0000         0.238665   
    138. A(B   5,B  10,B   6)           60.0000         0.238665   
    139. A(B   4,B  10,B   6)           60.0000         0.238665   
    140. A(B   4,B  10,B   5)          108.0000         0.238665   
    141. A(B   9,B  11,B  10)           60.0000         0.238665   
    142. A(B   7,B  11,B  10)          108.0000         0.238665   
    143. A(B   5,B  11,B  10)           60.0000         0.238665   
    144. A(B   3,B  11,B  10)          108.0000         0.238665   
    145. A(B   7,B  11,B   9)          108.0000         0.238665   
    146. A(B   5,B  11,B   9)          108.0000         0.238665   
    147. A(B   3,B  11,B   9)           60.0000         0.238665   
    148. A(B   5,B  11,B   7)           60.0000         0.238665   
    149. A(B   3,B  11,B   7)           60.0000         0.238665   
    150. A(B   3,B  11,B   5)          108.0000         0.238665   
    151. D(B   7,B   1,B   0,B   2)   -138.1897         0.010000   
    152. D(B   2,B   1,B   0,B   5)    100.8123         0.010000   
    153. D(B   3,B   1,B   0,B   7)     37.3774         0.010000   
    154. D(B   3,B   1,B   0,B   5)      0.0000         0.010000   
    155. D(B   2,B   1,B   0,B   6)     37.3774         0.010000   
    156. D(B   3,B   1,B   0,B   6)    -63.4349         0.010000   
    157. D(B   3,B   1,B   0,B   2)   -100.8123         0.010000   
    158. D(B   2,B   1,B   0,B   7)    138.1897         0.010000   
    159. D(B   6,B   2,B   0,B   1)    138.1897         0.010000   
    160. D(B   0,B   2,B   1,B   7)     37.3774         0.010000   
    161. D(B   0,B   2,B   1,B   8)    138.1897         0.010000   
    162. D(B   1,B   2,B   0,B   6)   -138.1897         0.010000   
    163. D(B   4,B   2,B   1,B   3)      0.0000         0.010000   
    164. D(B   4,B   2,B   1,B   0)   -100.8123         0.010000   
    165. D(B   4,B   2,B   0,B   6)    -37.3774         0.010000   
    166. D(B   1,B   2,B   0,B   7)    -37.3774         0.010000   
    167. D(B   1,B   2,B   0,B   5)   -100.8123         0.010000   
    168. D(B   6,B   2,B   1,B   0)    -37.3774         0.010000   
    169. D(B   0,B   2,B   1,B   3)    100.8123         0.010000   
    170. D(B   4,B   2,B   0,B   7)     63.4349         0.010000   
    171. D(B   4,B   2,B   0,B   5)      0.0000         0.010000   
    172. D(B   4,B   2,B   1,B   8)     37.3774         0.010000   
    173. D(B   4,B   2,B   0,B   1)    100.8123         0.010000   
    174. D(B   4,B   2,B   1,B   7)    -63.4349         0.010000   
    175. D(B   8,B   3,B   1,B   7)    138.1897         0.010000   
    176. D(B   7,B   3,B   1,B   2)   -100.8123         0.010000   
    177. D(B   9,B   3,B   1,B   0)     63.4349         0.010000   
    178. D(B   7,B   3,B   1,B   0)    -37.3774         0.010000   
    179. D(B   8,B   3,B   1,B   2)     37.3774         0.010000   
    180. D(B   7,B   3,B   1,B   8)   -138.1897         0.010000   
    181. D(B   8,B   3,B   1,B   0)    100.8123         0.010000   
    182. D(B   9,B   3,B   1,B   2)     -0.0000         0.010000   
    183. D(B   8,B   4,B   2,B   6)   -138.1897         0.010000   
    184. D(B   9,B   4,B   2,B   0)    -63.4349         0.010000   
    185. D(B   6,B   4,B   2,B   0)     37.3774         0.010000   
    186. D(B   8,B   4,B   2,B   0)   -100.8123         0.010000   
    187. D(B   6,B   4,B   2,B   1)    100.8123         0.010000   
    188. D(B   9,B   4,B   2,B   1)     -0.0000         0.010000   
    189. D(B   6,B   4,B   2,B   8)    138.1897         0.010000   
    190. D(B   8,B   4,B   2,B   1)    -37.3774         0.010000   
    191. D(B   6,B   5,B   0,B   7)   -138.1897         0.010000   
    192. D(B   7,B   5,B   0,B   2)    100.8123         0.010000   
    193. D(B   7,B   5,B   0,B   6)    138.1897         0.010000   
    194. D(B  10,B   5,B   0,B   1)    -63.4349         0.010000   
    195. D(B  10,B   5,B   0,B   2)     -0.0000         0.010000   
    196. D(B   7,B   5,B   0,B   1)     37.3774         0.010000   
    197. D(B   6,B   5,B   0,B   2)    -37.3774         0.010000   
    198. D(B   6,B   5,B   0,B   1)   -100.8123         0.010000   
    199. D(B   4,B   6,B   2,B   0)   -138.1897         0.010000   
    200. D(B   0,B   6,B   2,B   4)    138.1897         0.010000   
    201. D(B   4,B   6,B   0,B   2)     37.3774         0.010000   
    202. D(B   2,B   6,B   0,B   7)   -100.8123         0.010000   
    203. D(B   4,B   6,B   2,B   1)   -100.8123         0.010000   
    204. D(B   5,B   6,B   0,B   1)    100.8123         0.010000   
    205. D(B   4,B   6,B   0,B   7)    -63.4349         0.010000   
    206. D(B   4,B   6,B   0,B   1)      0.0000         0.010000   
    207. D(B   0,B   6,B   2,B   1)     37.3774         0.010000   
    208. D(B   2,B   6,B   0,B   5)   -138.1897         0.010000   
    209. D(B   4,B   6,B   2,B   8)    -37.3774         0.010000   
    210. D(B   0,B   6,B   2,B   8)    100.8123         0.010000   
    211. D(B   4,B   6,B   0,B   5)   -100.8123         0.010000   
    212. D(B   2,B   6,B   0,B   1)    -37.3774         0.010000   
    213. D(B   4,B   6,B   5,B   0)    100.8123         0.010000   
    214. D(B   5,B   6,B   2,B   0)    -37.3774         0.010000   
    215. D(B   2,B   6,B   5,B  10)   -100.8123         0.010000   
    216. D(B   2,B   6,B   5,B   7)      0.0000         0.010000   
    217. D(B   2,B   6,B   5,B   0)     37.3774         0.010000   
    218. D(B   0,B   6,B   5,B  10)   -138.1897         0.010000   
    219. D(B   0,B   6,B   5,B   7)    -37.3774         0.010000   
    220. D(B   5,B   6,B   4,B   2)   -100.8123         0.010000   
    221. D(B   0,B   6,B   4,B   9)     63.4349         0.010000   
    222. D(B   2,B   6,B   4,B   8)     37.3774         0.010000   
    223. D(B   0,B   6,B   4,B  10)    100.8123         0.010000   
    224. D(B   0,B   6,B   5,B  11)   -100.8123         0.010000   
    225. D(B   2,B   6,B   4,B  10)    138.1897         0.010000   
    226. D(B   0,B   6,B   4,B   8)     -0.0000         0.010000   
    227. D(B   0,B   6,B   4,B   2)    -37.3774         0.010000   
    228. D(B   2,B   6,B   5,B  11)    -63.4349         0.010000   
    229. D(B   5,B   6,B   2,B   1)     -0.0000         0.010000   
    230. D(B   2,B   6,B   4,B   9)    100.8123         0.010000   
    231. D(B   3,B   7,B   5,B   0)   -100.8123         0.010000   
    232. D(B   1,B   7,B   5,B  10)     63.4349         0.010000   
    233. D(B   1,B   7,B   5,B   6)     -0.0000         0.010000   
    234. D(B   1,B   7,B   5,B   0)    -37.3774         0.010000   
    235. D(B   0,B   7,B   5,B  10)    100.8123         0.010000   
    236. D(B   0,B   7,B   5,B   6)     37.3774         0.010000   
    237. D(B   5,B   7,B   3,B   1)    100.8123         0.010000   
    238. D(B   1,B   7,B   3,B   9)   -100.8123         0.010000   
    239. D(B   1,B   7,B   3,B   8)    -37.3774         0.010000   
    240. D(B   0,B   7,B   3,B  11)   -100.8123         0.010000   
    241. D(B   0,B   7,B   3,B   1)     37.3774         0.010000   
    242. D(B   5,B   7,B   1,B   2)      0.0000         0.010000   
    243. D(B   0,B   7,B   1,B   8)   -100.8123         0.010000   
    244. D(B   3,B   7,B   1,B   2)    100.8123         0.010000   
    245. D(B   3,B   7,B   1,B   0)    138.1897         0.010000   
    246. D(B   5,B   7,B   1,B   0)     37.3774         0.010000   
    247. D(B   0,B   7,B   1,B   3)   -138.1897         0.010000   
    248. D(B   0,B   7,B   1,B   2)    -37.3774         0.010000   
    249. D(B   5,B   7,B   0,B   1)   -138.1897         0.010000   
    250. D(B   3,B   7,B   1,B   8)     37.3774         0.010000   
    251. D(B   3,B   7,B   0,B   6)     63.4349         0.010000   
    252. D(B   1,B   7,B   3,B  11)   -138.1897         0.010000   
    253. D(B   3,B   7,B   0,B   5)    100.8123         0.010000   
    254. D(B   0,B   7,B   3,B   9)    -63.4349         0.010000   
    255. D(B   3,B   7,B   0,B   2)     -0.0000         0.010000   
    256. D(B   0,B   7,B   5,B  11)    138.1897         0.010000   
    257. D(B   3,B   7,B   0,B   1)    -37.3774         0.010000   
    258. D(B   1,B   7,B   0,B   2)     37.3774         0.010000   
    259. D(B   1,B   7,B   5,B  11)    100.8123         0.010000   
    260. D(B   1,B   7,B   0,B   5)    138.1897         0.010000   
    261. D(B   0,B   7,B   3,B   8)      0.0000         0.010000   
    262. D(B   1,B   7,B   0,B   6)    100.8123         0.010000   
    263. D(B   3,B   8,B   2,B   4)   -100.8123         0.010000   
    264. D(B   3,B   8,B   2,B   1)     37.3774         0.010000   
    265. D(B   3,B   8,B   2,B   0)      0.0000         0.010000   
    266. D(B   1,B   8,B   2,B   4)   -138.1897         0.010000   
    267. D(B   1,B   8,B   2,B   0)    -37.3774         0.010000   
    268. D(B   4,B   8,B   1,B   2)    -37.3774         0.010000   
    269. D(B   3,B   8,B   1,B   0)   -100.8123         0.010000   
    270. D(B   2,B   8,B   1,B   0)     37.3774         0.010000   
    271. D(B   2,B   8,B   1,B   7)    100.8123         0.010000   
    272. D(B   1,B   8,B   2,B   6)   -100.8123         0.010000   
    273. D(B   2,B   8,B   1,B   3)    138.1897         0.010000   
    274. D(B   3,B   8,B   1,B   2)   -138.1897         0.010000   
    275. D(B   4,B   8,B   1,B   0)     -0.0000         0.010000   
    276. D(B   3,B   8,B   2,B   6)    -63.4349         0.010000   
    277. D(B   3,B   8,B   1,B   7)    -37.3774         0.010000   
    278. D(B   3,B   8,B   4,B   2)    100.8123         0.010000   
    279. D(B   2,B   8,B   4,B   9)   -138.1897         0.010000   
    280. D(B   2,B   8,B   4,B   6)    -37.3774         0.010000   
    281. D(B   1,B   8,B   4,B  10)    -63.4349         0.010000   
    282. D(B   1,B   8,B   4,B   6)      0.0000         0.010000   
    283. D(B   1,B   8,B   4,B   2)     37.3774         0.010000   
    284. D(B   4,B   8,B   3,B   1)   -100.8123         0.010000   
    285. D(B   2,B   8,B   3,B  11)     63.4349         0.010000   
    286. D(B   2,B   8,B   3,B   9)    100.8123         0.010000   
    287. D(B   2,B   8,B   3,B   7)     -0.0000         0.010000   
    288. D(B   1,B   8,B   4,B   9)   -100.8123         0.010000   
    289. D(B   2,B   8,B   3,B   1)    -37.3774         0.010000   
    290. D(B   1,B   8,B   3,B  11)    100.8123         0.010000   
    291. D(B   1,B   8,B   3,B   9)    138.1897         0.010000   
    292. D(B   2,B   8,B   4,B  10)   -100.8123         0.010000   
    293. D(B   1,B   8,B   3,B   7)     37.3774         0.010000   
    294. D(B   4,B   8,B   2,B   0)    100.8123         0.010000   
    295. D(B  10,B   9,B   8,B   2)      0.0000         0.010000   
    296. D(B   4,B   9,B   8,B   3)    138.1897         0.010000   
    297. D(B   4,B   9,B   8,B   2)     37.3774         0.010000   
    298. D(B   4,B   9,B   8,B   1)    100.8123         0.010000   
    299. D(B   3,B   9,B   8,B   4)   -138.1897         0.010000   
    300. D(B   3,B   9,B   8,B   2)   -100.8123         0.010000   
    301. D(B   3,B   9,B   8,B   1)    -37.3774         0.010000   
    302. D(B  10,B   9,B   4,B   2)    100.8123         0.010000   
    303. D(B   8,B   9,B   4,B  10)   -138.1897         0.010000   
    304. D(B   8,B   9,B   4,B   6)   -100.8123         0.010000   
    305. D(B   8,B   9,B   4,B   2)    -37.3774         0.010000   
    306. D(B   3,B   9,B   4,B  10)   -100.8123         0.010000   
    307. D(B   3,B   9,B   4,B   8)     37.3774         0.010000   
    308. D(B   3,B   9,B   4,B   6)    -63.4349         0.010000   
    309. D(B   3,B   9,B   4,B   2)      0.0000         0.010000   
    310. D(B  10,B   9,B   3,B   1)    -63.4349         0.010000   
    311. D(B   8,B   9,B   3,B  11)    138.1897         0.010000   
    312. D(B   8,B   9,B   3,B   7)    100.8123         0.010000   
    313. D(B   8,B   9,B   3,B   1)     37.3774         0.010000   
    314. D(B   4,B   9,B   3,B  11)    100.8123         0.010000   
    315. D(B   4,B   9,B   3,B   8)    -37.3774         0.010000   
    316. D(B  10,B   9,B   8,B   1)     63.4349         0.010000   
    317. D(B   4,B   9,B   3,B   7)     63.4349         0.010000   
    318. D(B   4,B   9,B   3,B   1)      0.0000         0.010000   
    319. D(B   6,B  10,B   9,B   3)     63.4349         0.010000   
    320. D(B   5,B  10,B   9,B   8)    -63.4349         0.010000   
    321. D(B   5,B  10,B   9,B   4)   -100.8123         0.010000   
    322. D(B   5,B  10,B   9,B   3)     -0.0000         0.010000   
    323. D(B   4,B  10,B   9,B  11)    138.1897         0.010000   
    324. D(B   4,B  10,B   9,B   8)     37.3774         0.010000   
    325. D(B   4,B  10,B   9,B   3)    100.8123         0.010000   
    326. D(B   9,B  10,B   6,B   2)      0.0000         0.010000   
    327. D(B   5,B  10,B   6,B   4)    138.1897         0.010000   
    328. D(B   5,B  10,B   6,B   2)    100.8123         0.010000   
    329. D(B   5,B  10,B   6,B   0)     37.3774         0.010000   
    330. D(B   4,B  10,B   6,B   2)    -37.3774         0.010000   
    331. D(B   4,B  10,B   6,B   0)   -100.8123         0.010000   
    332. D(B   9,B  10,B   5,B   0)     63.4349         0.010000   
    333. D(B   6,B  10,B   5,B  11)   -138.1897         0.010000   
    334. D(B   6,B  10,B   5,B   7)   -100.8123         0.010000   
    335. D(B   6,B  10,B   5,B   0)    -37.3774         0.010000   
    336. D(B   4,B  10,B   6,B   5)   -138.1897         0.010000   
    337. D(B   4,B  10,B   5,B  11)   -100.8123         0.010000   
    338. D(B   4,B  10,B   5,B   7)    -63.4349         0.010000   
    339. D(B   4,B  10,B   5,B   6)     37.3774         0.010000   
    340. D(B   9,B  10,B   6,B   0)    -63.4349         0.010000   
    341. D(B   4,B  10,B   5,B   0)      0.0000         0.010000   
    342. D(B   9,B  10,B   4,B   2)   -100.8123         0.010000   
    343. D(B   6,B  10,B   4,B   9)    138.1897         0.010000   
    344. D(B   6,B  10,B   4,B   8)    100.8123         0.010000   
    345. D(B   6,B  10,B   4,B   2)     37.3774         0.010000   
    346. D(B   5,B  10,B   4,B   9)    100.8123         0.010000   
    347. D(B   5,B  10,B   4,B   8)     63.4349         0.010000   
    348. D(B   5,B  10,B   9,B  11)     37.3774         0.010000   
    349. D(B   5,B  10,B   4,B   6)    -37.3774         0.010000   
    350. D(B   5,B  10,B   4,B   2)      0.0000         0.010000   
    351. D(B   7,B  11,B  10,B   4)     63.4349         0.010000   
    352. D(B   5,B  11,B  10,B   6)     37.3774         0.010000   
    353. D(B   5,B  11,B  10,B   4)    100.8123         0.010000   
    354. D(B   3,B  11,B  10,B   9)     37.3774         0.010000   
    355. D(B   3,B  11,B  10,B   5)   -100.8123         0.010000   
    356. D(B   3,B  11,B  10,B   4)     -0.0000         0.010000   
    357. D(B   7,B  11,B   9,B   3)     37.3774         0.010000   
    358. D(B   5,B  11,B   9,B   8)     63.4349         0.010000   
    359. D(B   5,B  11,B   9,B   4)     -0.0000         0.010000   
    360. D(B   5,B  11,B   9,B   3)    100.8123         0.010000   
    361. D(B   3,B  11,B   9,B  10)   -138.1897         0.010000   
    362. D(B   3,B  11,B   9,B   8)    -37.3774         0.010000   
    363. D(B   3,B  11,B   9,B   4)   -100.8123         0.010000   
    364. D(B   9,B  11,B   7,B   1)      0.0000         0.010000   
    365. D(B   5,B  11,B   7,B   3)   -138.1897         0.010000   
    366. D(B   5,B  11,B   7,B   1)   -100.8123         0.010000   
    367. D(B   5,B  11,B   7,B   0)    -37.3774         0.010000   
    368. D(B   3,B  11,B   7,B   5)    138.1897         0.010000   
    369. D(B   3,B  11,B   7,B   1)     37.3774         0.010000   
    370. D(B   3,B  11,B   7,B   0)    100.8123         0.010000   
    371. D(B   9,B  11,B   5,B   0)    -63.4349         0.010000   
    372. D(B   9,B  11,B   7,B   0)     63.4349         0.010000   
    373. D(B   7,B  11,B   5,B  10)    138.1897         0.010000   
    374. D(B   7,B  11,B   5,B   6)    100.8123         0.010000   
    375. D(B   7,B  11,B   5,B   0)     37.3774         0.010000   
    376. D(B   3,B  11,B   5,B  10)    100.8123         0.010000   
    377. D(B   3,B  11,B   5,B   7)    -37.3774         0.010000   
    378. D(B   3,B  11,B   5,B   6)     63.4349         0.010000   
    379. D(B   3,B  11,B   5,B   0)      0.0000         0.010000   
    380. D(B   5,B  11,B   9,B  10)    -37.3774         0.010000   
    381. D(B   9,B  11,B   3,B   1)    100.8123         0.010000   
    382. D(B   7,B  11,B   3,B   9)   -138.1897         0.010000   
    383. D(B   7,B  11,B   3,B   8)   -100.8123         0.010000   
    384. D(B   3,B  11,B  10,B   6)    -63.4349         0.010000   
    385. D(B   7,B  11,B   3,B   1)    -37.3774         0.010000   
    386. D(B   5,B  11,B   3,B   9)   -100.8123         0.010000   
    387. D(B   5,B  11,B   3,B   8)    -63.4349         0.010000   
    388. D(B   5,B  11,B  10,B   9)    138.1897         0.010000   
    389. D(B   5,B  11,B   3,B   7)     37.3774         0.010000   
    390. D(B   5,B  11,B   3,B   1)      0.0000         0.010000   
    -----------------------------------------------------------------

Number of atoms                         .... 12
Number of degrees of freedom            .... 390


         *************************************************************
         *                GEOMETRY OPTIMIZATION CYCLE   1            *
         *************************************************************
---------------------------------
CARTESIAN COORDINATES (ANGSTROEM)
---------------------------------
  B      0.000000   -1.000000   -1.618034
  B     -1.000000   -1.618034    0.000000
  B     -1.618034    0.000000   -1.000000
  B      0.000000   -1.000000    1.618034
  B     -1.000000    1.618034    0.000000
  B      1.618034    0.000000   -1.000000
  B      0.000000    1.000000   -1.618034
  B      1.000000   -1.618034    0.000000
  B     -1.618034    0.000000    1.000000
  B      0.000000    1.000000    1.618034
  B      1.000000    1.618034    0.000000
  B      1.618034    0.000000    1.000000

----------------------------
CARTESIAN COORDINATES (A.U.)
----------------------------
  NO LB      ZA    FRAG     MASS         X           Y           Z
   0 B     5.0000    0    10.810    0.000000   -1.889726   -3.057641
   1 B     5.0000    0    10.810   -1.889726   -3.057641    0.000000
   2 B     5.0000    0    10.810   -3.057641    0.000000   -1.889726
   3 B     5.0000    0    10.810    0.000000   -1.889726    3.057641
   4 B     5.0000    0    10.810   -1.889726    3.057641    0.000000
   5 B     5.0000    0    10.810    3.057641    0.000000   -1.889726
   6 B     5.0000    0    10.810    0.000000    1.889726   -3.057641
   7 B     5.0000    0    10.810    1.889726   -3.057641    0.000000
   8 B     5.0000    0    10.810   -3.057641    0.000000    1.889726
   9 B     5.0000    0    10.810    0.000000    1.889726    3.057641
  10 B     5.0000    0    10.810    1.889726    3.057641    0.000000
  11 B     5.0000    0    10.810    3.057641    0.000000    1.889726

--------------------------------
INTERNAL COORDINATES (ANGSTROEM)
--------------------------------
 B      0   0   0     0.000000000000     0.00000000     0.00000000
 B      1   0   0     2.000000001398     0.00000000     0.00000000
 B      1   2   0     2.000000001398    60.00000000     0.00000000
 B      2   1   3     2.000000001398   108.00000001   259.18768308
 B      3   1   2     2.000000001398   107.99999997   100.81231699
 B      1   2   3     2.000000001398   107.99999997   100.81231699
 B      1   2   3     2.000000000000   108.00000002    37.37736815
 B      2   1   3     2.000000000000    60.00000002   221.81031488
 B      3   1   2     2.000000000000   108.00000002    37.37736815
 B      4   2   1     2.000000000000   108.00000002    63.43494877
 B      5   3   1     2.000000000000   108.00000002     0.00000000
 B      6   1   2     2.000000000000   108.00000002     0.00000000

---------------------------
INTERNAL COORDINATES (A.U.)
---------------------------
 B      0   0   0     0.000000000000     0.00000000     0.00000000
 B      1   0   0     3.779452270484     0.00000000     0.00000000
 B      1   2   0     3.779452270484    60.00000000     0.00000000
 B      2   1   3     3.779452270484   108.00000001   259.18768308
 B      3   1   2     3.779452270484   107.99999997   100.81231699
 B      1   2   3     3.779452270484   107.99999997   100.81231699
 B      1   2   3     3.779452267843   108.00000002    37.37736815
 B      2   1   3     3.779452267843    60.00000002   221.81031488
 B      3   1   2     3.779452267843   108.00000002    37.37736815
 B      4   2   1     3.779452267843   108.00000002    63.43494877
 B      5   3   1     3.779452267843   108.00000002     0.00000000
 B      6   1   2     3.779452267843   108.00000002     0.00000000

---------------------
BASIS SET INFORMATION
---------------------
There are 1 groups of distinct atoms

 Group   1 Type B   : 7s4p1d contracted to 3s2p1d pattern {511/31/1}

Atom   0B    basis set group =>   1
Atom   1B    basis set group =>   1
Atom   2B    basis set group =>   1
Atom   3B    basis set group =>   1
Atom   4B    basis set group =>   1
Atom   5B    basis set group =>   1
Atom   6B    basis set group =>   1
Atom   7B    basis set group =>   1
Atom   8B    basis set group =>   1
Atom   9B    basis set group =>   1
Atom  10B    basis set group =>   1
Atom  11B    basis set group =>   1
---------------------------------
AUXILIARY/J BASIS SET INFORMATION
---------------------------------
There are 1 groups of distinct atoms

 Group   1 Type B   : 12s5p4d2f1g contracted to 6s4p3d1f1g pattern {711111/2111/211/2/1}

Atom   0B    basis set group =>   1
Atom   1B    basis set group =>   1
Atom   2B    basis set group =>   1
Atom   3B    basis set group =>   1
Atom   4B    basis set group =>   1
Atom   5B    basis set group =>   1
Atom   6B    basis set group =>   1
Atom   7B    basis set group =>   1
Atom   8B    basis set group =>   1
Atom   9B    basis set group =>   1
Atom  10B    basis set group =>   1
Atom  11B    basis set group =>   1


           ************************************************************
           *        Program running with 8 parallel MPI-processes     *
           *              working on a common directory               *
           ************************************************************
------------------------------------------------------------------------------
                             ORCA STARTUP CALCULATIONS
                           -- RI-GTO INTEGRALS CHOSEN --
------------------------------------------------------------------------------
------------------------------------------------------------------------------
                   ___                                                        
                  /   \      - P O W E R E D   B Y -                         
                 /     \                                                     
                 |  |  |   _    _      __       _____    __    __             
                 |  |  |  | |  | |    /  \     |  _  \  |  |  /  |          
                  \  \/   | |  | |   /    \    | | | |  |  | /  /          
                 / \  \   | |__| |  /  /\  \   | |_| |  |  |/  /          
                |  |  |   |  __  | /  /__\  \  |    /   |      \           
                |  |  |   | |  | | |   __   |  |    \   |  |\   \          
                \     /   | |  | | |  |  |  |  | |\  \  |  | \   \       
                 \___/    |_|  |_| |__|  |__|  |_| \__\ |__|  \__/        
                                                                              
                      - O R C A' S   B I G   F R I E N D -                    
                                      &                                       
                       - I N T E G R A L  F E E D E R -                       
                                                                              
 v1 FN, 2020, v2 2021, v3 2022-2024                                           
------------------------------------------------------------------------------


----------------------
SHARK INTEGRAL PACKAGE
----------------------

Number of atoms                             ...     12
Number of basis functions                   ...    168
Number of shells                            ...     72
Maximum angular momentum                    ...      2
Integral batch strategy                     ... SHARK/LIBINT Hybrid
RI-J (if used) integral strategy            ... SPLIT-RIJ (Revised 2003 algorithm where possible)
Printlevel                                  ...      1
Contraction scheme used                     ... SEGMENTED contraction
Prescreening option                         ... SCHWARTZ
   Thresh                                   ... 2.500e-11
   Tcut                                     ... 2.500e-12
   Tpresel                                  ... 2.500e-12 
Coulomb Range Separation                    ... NOT USED
Exchange Range Separation                   ... NOT USED
Multipole approximations                    ... NOT USED
Finite Nucleus Model                        ... NOT USED
CABS basis                                  ... NOT available
Auxiliary Coulomb fitting basis             ... AVAILABLE
   # of basis functions in Aux-J            ...    588
   # of shells in Aux-J                     ...    180
   Maximum angular momentum in Aux-J        ...      4
Auxiliary J/K fitting basis                 ... NOT available
Auxiliary Correlation fitting basis         ... NOT available
Auxiliary 'external' fitting basis          ... NOT available

Checking pre-screening integrals            ... done (  0.0 sec) Dimension = 72
   => SHARK Basis and OBASIS are compatible. Storing Pre-screening
Shell pair information
Shell pair cut-off parameter TPreSel        ...   2.5e-12
Total number of shell pairs                 ...      2628
Shell pairs after pre-screening             ...      2592
Total number of primitive shell pairs       ...     10596
Primitive shell pairs kept                  ...      7932
          la=0 lb=0:    630 shell pairs
          la=1 lb=0:    864 shell pairs
          la=1 lb=1:    300 shell pairs
          la=2 lb=0:    432 shell pairs
          la=2 lb=1:    288 shell pairs
          la=2 lb=2:     78 shell pairs

Checking whether 4 symmetric matrices of dimension 168 fit in memory
:Max Core in MB      =   2500.00
 MB in use           =      6.92
 MB left             =   2493.08
 MB needed           =      0.43
 Data fit in memory  = YES
Calculating RI/J V-Matrix + Cholesky decomp.... done (  0.1 sec)
Calculating Nuclear repulsion               ... done (  0.0 sec) ENN=    341.950384888846 Eh

Diagonalization of the overlap matrix:
Smallest eigenvalue                        ... 7.035e-04
Time for diagonalization                   ...    0.006 sec
Threshold for overlap eigenvalues          ... 1.000e-07
Number of eigenvalues below threshold      ... 0
Time for construction of square roots      ...    0.024 sec
Total time needed                          ...    0.033 sec

-------------------
DFT GRID GENERATION
-------------------

General Integration Accuracy     IntAcc      ... 4.388
Radial Grid Type                 RadialGrid  ... OptM3 with GC (2021)
Angular Grid (max. ang.)         AngularGrid ... 4 (Lebedev-302)
Angular grid pruning method      GridPruning ... 4 (adaptive)
Weight generation scheme         WeightScheme... mBecke (2022)
Basis function cutoff            BFCut       ... 1.0000e-11
Integration weight cutoff        WCut        ... 1.0000e-14
Partially contracted basis set               ... off
Rotationally invariant grid construction     ... off
Angular grids for H and He will be reduced by one unit

Total number of grid points                  ...    70596
Total number of batches                      ...     1108
Average number of points per batch           ...       63
Average number of grid points per atom       ...     5883
Grids setup in   0.9 sec
Initializing property integral containers    ... done (  0.0 sec)

SHARK setup successfully completed in   1.4 seconds

Maximum memory used throughout the entire STARTUP-calculation: 19.8 MB


           ************************************************************
           *        Program running with 8 parallel MPI-processes     *
           *              working on a common directory               *
           ************************************************************
-------------------------------------------------------------------------------
                                 ORCA GUESS
                   Start orbitals & Density for SCF / CASSCF
-------------------------------------------------------------------------------

------------
SCF SETTINGS
------------
Hamiltonian:
 Density Functional     Method          .... DFT(GTOs)
 Exchange Functional    Exchange        .... B88
   X-Alpha parameter    XAlpha          ....  0.666667
   Becke's b parameter  XBeta           ....  0.004200
 Correlation Functional Correlation     .... P86
 LDA part of GGA corr.  LDAOpt          .... PW91-LDA
 Gradients option       PostSCFGGA      .... off
   NL short-range parameter             ....  4.400000
 RI-approximation to the Coulomb term is turned on
   Number of AuxJ basis functions       .... 588


General Settings:
 Integral files         IntName         .... icosahedron_nn2.00
 Hartree-Fock type      HFTyp           .... RHF
 Total Charge           Charge          ....    0
 Multiplicity           Mult            ....    1
 Number of Electrons    NEL             ....   60
 Basis Dimension        Dim             ....  168
 Nuclear Repulsion      ENuc            ....    341.9503848888 Eh

Convergence Acceleration:
 AO-DIIS                CNVDIIS         .... on
   Start iteration      DIISMaxIt       ....     0
   Startup error        DIISStart       ....  0.200000
   # of expansion vecs  DIISMaxEq       ....     5
   Bias factor          DIISBfac        ....   1.050
   Max. coefficient     DIISMaxC        ....  10.000
 MO-DIIS                CNVKDIIS        .... off
 Trust-Rad. Augm. Hess. CNVTRAH         .... auto
   Auto Start mean grad. ratio tolernc. ....  1.125000
   Auto Start start iteration           ....    50
   Auto Start num. interpolation iter.  ....    10
   Max. Number of Micro iterations      ....    24
   Max. Number of Macro iterations      .... Maxiter - #DIIS iter
   Number of Davidson start vectors     ....     2
   Converg. threshold    (grad. norm)   ....   1.000e-05
   Grad. Scal. Fac. for Micro threshold ....   0.100
   Minimum threshold for Micro iter.    ....   1.000e-02
   NR start threshold (gradient norm)   ....   1.000e-04
   Initial trust radius                 ....   0.400
   Minimum AH scaling param. (alpha)    ....   1.000
   Maximum AH scaling param. (alpha)    .... 1000.000
   Quad. conv. algorithm                .... NR
   White noise on init. David. guess    .... on
   Maximum white noise                  ....   0.010
   Pseudo random numbers                .... off
   Inactive MOs                         .... canonical
   Orbital update algorithm             .... Taylor
   Preconditioner                       .... Diag
   Full preconditioner red. dimension   ....   250
 SOSCF                 CNVSOSCF           .... on
   Start iteration     SOSCFMaxIt         ....   150
   Startup grad/error  SOSCFStart         ....  0.001000
   Hessian update      SOSCFHessUp        .... L-BFGS
   Autom. constraints  SOSCFAutoConstrain .... off
 Level Shifting         CNVShift        .... on
   Level shift para.    LevelShift      ....    0.2500
   Turn off err/grad.   ShiftErr        ....    0.0000
 Zerner damping         CNVZerner       .... off
 Static damping         CNVDamp         .... on
   Fraction old density DampFac         ....    0.8500
   Max. Damping (<1)    DampMax         ....    0.9800
   Min. Damping (>=0)   DampMin         ....    0.0000
   Turn off err/grad.   DampErr         ....    0.0300

SCF Procedure:
 Maximum # iterations   MaxIter         ....   125
 SCF integral mode      SCFMode         .... Direct
   Integral package                     .... SHARK and LIBINT hybrid scheme
 Reset frequency        DirectResetFreq ....    20
 Integral Threshold     Thresh          ....  2.500e-11 Eh
 Primitive CutOff       TCut            ....  2.500e-12 Eh

Convergence Tolerance:
 Convergence Check Mode ConvCheckMode   .... Total+1el-Energy
 Convergence forced     ConvForced      .... 0
 Energy Change          TolE            ....  1.000e-08 Eh
 1-El. energy change                    ....  1.000e-05 Eh
 Orbital Gradient       TolG            ....  1.000e-05
 Orbital Rotation angle TolX            ....  1.000e-05
 DIIS Error             TolErr          ....  5.000e-07

------------------------------
INITIAL GUESS: MODEL POTENTIAL
------------------------------
Loading Hartree-Fock densities                     ... done
Calculating cut-offs                               ... done
Initializing the effective Hamiltonian             ... done
Setting up the integral package (SHARK)            ... done
Starting the Coulomb interaction                   ... done (   0.0 sec)
Making the grid                                    ... done (   0.3 sec)
Mapping shells                                     ... done
Starting the XC term evaluation                    ... done (   0.1 sec)
  promolecular density results
     # of electrons  =     60.035034812
     EX              =    -45.423673227
     EC              =     -1.986277775
     EX+EC           =    -47.409951002
Transforming the Hamiltonian                       ... done (   0.0 sec)
Diagonalizing the Hamiltonian                      ... done (   0.0 sec)
Back transforming the eigenvectors                 ... done (   0.0 sec)
Now organizing SCF variables                       ... done
                      ------------------
                      INITIAL GUESS DONE (   0.4 sec)
                      ------------------
             **** ENERGY FILE WAS UPDATED (icosahedron_nn2.00.en.tmp) ****
Finished Guess after   1.0 sec
Maximum memory used throughout the entire GUESS-calculation: 9.8 MB


           ************************************************************
           *        Program running with 8 parallel MPI-processes     *
           *              working on a common directory               *
           ************************************************************

-------------------------------------------------------------------------------------------
                                      ORCA LEAN-SCF
                              memory conserving SCF solver
-------------------------------------------------------------------------------------------

----------------------------------------D-I-I-S--------------------------------------------
Iteration    Energy (Eh)           Delta-E    RMSDP     MaxDP     DIISErr   Damp  Time(sec)
-------------------------------------------------------------------------------------------
               ***  Starting incremental Fock matrix formation  ***
    1    -297.0670423534448901     0.00e+00  7.76e-03  5.75e-02  7.29e-02  0.850   0.4
Warning: op=0 Small HOMO/LUMO gap (  -0.042) - skipping pre-diagonalization
         Will do a full diagonalization
    2    -297.1213357514460540    -5.43e-02  6.91e-03  2.86e-02  5.34e-02  0.850   0.4
                               ***Turning on AO-DIIS***
    3    -297.1589193172858359    -3.76e-02  5.46e-03  3.61e-02  3.15e-02  0.850   0.8
    4    -297.1797916082178972    -2.09e-02  5.25e-03  4.02e-02  2.06e-02  0.850   0.5
    5    -297.1932943453439293    -1.35e-02  3.08e-02  2.34e-01  1.55e-02  0.000   0.8
    6    -297.2440703647571354    -5.08e-02  2.54e-03  1.45e-02  1.14e-02  0.000   0.5
    7    -297.2472560733353930    -3.19e-03  1.39e-03  6.35e-03  4.46e-03  0.000   0.5
    8    -297.2482116119597322    -9.56e-04  1.63e-03  1.24e-02  1.66e-03  0.000   0.7
                              *** Initializing SOSCF ***
---------------------------------------S-O-S-C-F--------------------------------------
Iteration    Energy (Eh)           Delta-E    RMSDP     MaxDP     MaxGrad    Time(sec)
--------------------------------------------------------------------------------------
    9    -297.2484582602453429    -2.47e-04  9.01e-04  5.11e-03  7.91e-04     1.4
               *** Restarting incremental Fock matrix formation ***
   10    -297.2485609481394704    -1.03e-04  1.57e-03  8.69e-03  1.61e-03     0.4
   11    -297.2486603161422636    -9.94e-05  3.74e-03  2.43e-02  7.52e-04     0.4
   12    -297.2487391852196197    -7.89e-05  4.72e-04  4.59e-03  6.71e-04     0.4
   13    -297.2487593030364224    -2.01e-05  3.47e-04  2.46e-03  3.24e-04     0.4
   14    -297.2487643050404813    -5.00e-06  2.80e-04  1.98e-03  2.00e-04     0.6
   15    -297.2487672472681197    -2.94e-06  7.10e-04  4.56e-03  1.03e-04     0.3
   16    -297.2487705598238108    -3.31e-06  1.46e-03  9.27e-03  1.26e-04     0.5
   17    -297.2487746790810661    -4.12e-06  9.64e-04  6.09e-03  1.97e-04     0.4
   18    -297.2487794430929853    -4.76e-06  1.92e-03  1.19e-02  1.54e-04     0.3
   19    -297.2487837595249403    -4.32e-06  5.11e-04  2.96e-03  2.41e-04     0.3
   20    -297.2487859180029091    -2.16e-06  2.60e-04  1.36e-03  1.85e-04     0.3
   21    -297.2487851965544223     7.21e-07  1.22e-04  6.25e-04  2.51e-04     0.6
   22    -297.2487893263272554    -4.13e-06  3.81e-04  2.15e-03  5.99e-05     0.3
   23    -297.2487900509146357    -7.25e-07  5.12e-04  2.96e-03  4.25e-05     0.4
   24    -297.2487900728851855    -2.20e-08  1.31e-04  8.64e-04  7.23e-05     0.3
   25    -297.2487903549344992    -2.82e-07  9.17e-05  6.09e-04  2.78e-05     0.3
   26    -297.2487901795933567     1.75e-07  5.85e-05  3.92e-04  7.94e-05     0.3
   27    -297.2487903906848032    -2.11e-07  2.21e-05  1.39e-04  8.55e-06     0.4
   28    -297.2487903959777213    -5.29e-09  2.16e-05  1.32e-04  1.33e-05     0.4
                 **** Energy Check signals convergence ****

               *****************************************************
               *                     SUCCESS                       *
               *           SCF CONVERGED AFTER  28 CYCLES          *
               *****************************************************

             **** ENERGY FILE WAS UPDATED (icosahedron_nn2.00.en.tmp) ****

----------------
TOTAL SCF ENERGY
----------------

Total Energy       :       -297.24879041222289 Eh           -8088.55080 eV

Components:
Nuclear Repulsion  :        341.95038488884597 Eh            9304.94303 eV
Electronic Energy  :       -639.19917530106886 Eh          -17393.49383 eV
One Electron Energy:      -1071.16446291566876 Eh          -29147.86688 eV
Two Electron Energy:        431.96528761459990 Eh           11754.37306 eV

Virial components:
Potential Energy   :       -586.82533033620530 Eh          -15968.32905 eV
Kinetic Energy     :        289.57653992398247 Eh            7879.77825 eV
Virial Ratio       :          2.02649472395193

DFT components:
N(Alpha)           :       30.000337690562 electrons
N(Beta)            :       30.000337690562 electrons
N(Total)           :       60.000675381124 electrons
E(X)               :      -45.430174817841 Eh       
E(C)               :       -2.015595414387 Eh       
E(XC)              :      -47.445770232229 Eh       

---------------
SCF CONVERGENCE
---------------

  Last Energy change         ...    5.2929e-09  Tolerance :   1.0000e-08
  Last MAX-Density change    ...    1.3243e-04  Tolerance :   1.0000e-07
  Last RMS-Density change    ...    2.1572e-05  Tolerance :   5.0000e-09
  Last DIIS Error            ...    7.9067e-04  Tolerance :   5.0000e-07
  Last Orbital Gradient      ...    1.3276e-05  Tolerance :   1.0000e-05
  Last Orbital Rotation      ...    1.4925e-04  Tolerance :   1.0000e-05


----------------
ORBITAL ENERGIES
----------------

  NO   OCC          E(Eh)            E(eV) 
   0   2.0000      -6.653665      -181.0554 
   1   2.0000      -6.653656      -181.0552 
   2   2.0000      -6.653644      -181.0549 
   3   2.0000      -6.653611      -181.0540 
   4   2.0000      -6.653599      -181.0536 
   5   2.0000      -6.653512      -181.0513 
   6   2.0000      -6.635543      -180.5623 
   7   2.0000      -6.635536      -180.5621 
   8   2.0000      -6.635504      -180.5613 
   9   2.0000      -6.635488      -180.5608 
  10   2.0000      -6.635394      -180.5582 
  11   2.0000      -6.635335      -180.5567 
  12   2.0000      -0.667122       -18.1533 
  13   2.0000      -0.558490       -15.1973 
  14   2.0000      -0.555714       -15.1217 
  15   2.0000      -0.555712       -15.1217 
  16   2.0000      -0.418705       -11.3935 
  17   2.0000      -0.417774       -11.3682 
  18   2.0000      -0.417772       -11.3681 
  19   2.0000      -0.416168       -11.3245 
  20   2.0000      -0.416161       -11.3243 
  21   2.0000      -0.308034        -8.3820 
  22   2.0000      -0.297394        -8.0925 
  23   2.0000      -0.296774        -8.0756 
  24   2.0000      -0.296767        -8.0754 
  25   2.0000      -0.295215        -8.0332 
  26   2.0000      -0.222849        -6.0640 
  27   2.0000      -0.220550        -6.0015 
  28   2.0000      -0.220543        -6.0013 
  29   2.0000      -0.214255        -5.8302 
  30   0.0000      -0.216241        -5.8842 
  31   0.0000      -0.216231        -5.8840 
  32   0.0000      -0.153729        -4.1832 
  33   0.0000      -0.153725        -4.1831 
  34   0.0000      -0.152589        -4.1522 
  35   0.0000      -0.151207        -4.1146 
  36   0.0000      -0.151190        -4.1141 
  37   0.0000      -0.069697        -1.8966 
  38   0.0000      -0.069337        -1.8867 
  39   0.0000      -0.069333        -1.8867 
  40   0.0000      -0.068131        -1.8539 
*Only the first 10 virtual orbitals were printed.

                    ********************************
                    * MULLIKEN POPULATION ANALYSIS *
                    ********************************

-----------------------
MULLIKEN ATOMIC CHARGES
-----------------------
   0 B :   -0.007792
   1 B :    0.007767
   2 B :    0.007783
   3 B :    0.007783
   4 B :   -0.007783
   5 B :   -0.007753
   6 B :    0.007789
   7 B :   -0.007769
   8 B :   -0.007768
   9 B :   -0.007808
  10 B :    0.007765
  11 B :    0.007785
Sum of atomic charges:    0.0000000

--------------------------------
MULLIKEN REDUCED ORBITAL CHARGES
--------------------------------
  0 B s       :     3.033479  s :     3.033479
      pz      :     0.655298  p :     1.932702
      px      :     0.634168
      py      :     0.643236
      dz2     :     0.008396  d :     0.041611
      dxz     :     0.009018
      dyz     :     0.007683
      dx2y2   :     0.008691
      dxy     :     0.007824

  1 B s       :     3.146047  s :     3.146047
      pz      :     0.623789  p :     1.806484
      px      :     0.606032
      py      :     0.576664
      dz2     :     0.006532  d :     0.039702
      dxz     :     0.007728
      dyz     :     0.008842
      dx2y2   :     0.008789
      dxy     :     0.007812

  2 B s       :     3.144899  s :     3.144899
      pz      :     0.606361  p :     1.807609
      px      :     0.577399
      py      :     0.623848
      dz2     :     0.007760  d :     0.039709
      dxz     :     0.007812
      dyz     :     0.007731
      dx2y2   :     0.007567
      dxy     :     0.008838

  3 B s       :     3.144836  s :     3.144836
      pz      :     0.577425  p :     1.807672
      px      :     0.623896
      py      :     0.606351
      dz2     :     0.008692  d :     0.039709
      dxz     :     0.008845
      dyz     :     0.007809
      dx2y2   :     0.006628
      dxy     :     0.007736

  4 B s       :     3.033454  s :     3.033454
      pz      :     0.634183  p :     1.932719
      px      :     0.643302
      py      :     0.655234
      dz2     :     0.007847  d :     0.041610
      dxz     :     0.007816
      dyz     :     0.009013
      dx2y2   :     0.009255
      dxy     :     0.007679

  5 B s       :     3.033523  s :     3.033523
      pz      :     0.643260  p :     1.932619
      px      :     0.655246
      py      :     0.634112
      dz2     :     0.009399  d :     0.041611
      dxz     :     0.007679
      dyz     :     0.007819
      dx2y2   :     0.007701
      dxy     :     0.009011

  6 B s       :     3.144834  s :     3.144834
      pz      :     0.577423  p :     1.807668
      px      :     0.623895
      py      :     0.606350
      dz2     :     0.008692  d :     0.039709
      dxz     :     0.008845
      dyz     :     0.007809
      dx2y2   :     0.006628
      dxy     :     0.007736

  7 B s       :     3.033450  s :     3.033450
      pz      :     0.634181  p :     1.932709
      px      :     0.643299
      py      :     0.655229
      dz2     :     0.007847  d :     0.041610
      dxz     :     0.007816
      dyz     :     0.009013
      dx2y2   :     0.009255
      dxy     :     0.007679

  8 B s       :     3.033526  s :     3.033526
      pz      :     0.643264  p :     1.932630
      px      :     0.655252
      py      :     0.634115
      dz2     :     0.009399  d :     0.041611
      dxz     :     0.007679
      dyz     :     0.007820
      dx2y2   :     0.007701
      dxy     :     0.009011

  9 B s       :     3.033485  s :     3.033485
      pz      :     0.655302  p :     1.932712
      px      :     0.634171
      py      :     0.643239
      dz2     :     0.008396  d :     0.041612
      dxz     :     0.009018
      dyz     :     0.007683
      dx2y2   :     0.008691
      dxy     :     0.007824

 10 B s       :     3.146047  s :     3.146047
      pz      :     0.623789  p :     1.806486
      px      :     0.606032
      py      :     0.576665
      dz2     :     0.006532  d :     0.039702
      dxz     :     0.007728
      dyz     :     0.008842
      dx2y2   :     0.008789
      dxy     :     0.007812

 11 B s       :     3.144895  s :     3.144895
      pz      :     0.606361  p :     1.807610
      px      :     0.577400
      py      :     0.623848
      dz2     :     0.007760  d :     0.039709
      dxz     :     0.007812
      dyz     :     0.007731
      dx2y2   :     0.007567
      dxy     :     0.008839



                     *******************************
                     * LOEWDIN POPULATION ANALYSIS *
                     *******************************

----------------------
LOEWDIN ATOMIC CHARGES
----------------------
   0 B :    0.011218
   1 B :   -0.011346
   2 B :   -0.011176
   3 B :   -0.011160
   4 B :    0.011231
   5 B :    0.011238
   6 B :   -0.011154
   7 B :    0.011244
   8 B :    0.011225
   9 B :    0.011205
  10 B :   -0.011348
  11 B :   -0.011177

-------------------------------
LOEWDIN REDUCED ORBITAL CHARGES
-------------------------------
  0 B s       :     2.740260  s :     2.740260
      pz      :     0.723386  p :     2.152481
      px      :     0.713288
      py      :     0.715808
      dz2     :     0.018924  d :     0.096041
      dxz     :     0.023316
      dyz     :     0.014226
      dx2y2   :     0.020677
      dxy     :     0.018898

  1 B s       :     2.843662  s :     2.843662
      pz      :     0.706896  p :     2.075886
      px      :     0.694006
      py      :     0.674984
      dz2     :     0.013136  d :     0.091798
      dxz     :     0.018806
      dyz     :     0.023184
      dx2y2   :     0.022251
      dxy     :     0.014420

  2 B s       :     2.842873  s :     2.842873
      pz      :     0.694179  p :     2.076485
      px      :     0.675378
      py      :     0.706928
      dz2     :     0.019795  d :     0.091818
      dxz     :     0.014418
      dyz     :     0.018816
      dx2y2   :     0.015612
      dxy     :     0.023177

  3 B s       :     2.842842  s :     2.842842
      pz      :     0.675418  p :     2.076499
      px      :     0.706955
      py      :     0.694126
      dz2     :     0.020159  d :     0.091819
      dxz     :     0.023194
      dyz     :     0.014414
      dx2y2   :     0.015223
      dxy     :     0.018829

  4 B s       :     2.740262  s :     2.740262
      pz      :     0.713294  p :     2.152467
      px      :     0.715764
      py      :     0.723409
      dz2     :     0.016526  d :     0.096040
      dxz     :     0.018875
      dyz     :     0.023303
      dx2y2   :     0.023112
      dxy     :     0.014223

  5 B s       :     2.740266  s :     2.740266
      pz      :     0.715760  p :     2.152456
      px      :     0.723444
      py      :     0.713252
      dz2     :     0.023980  d :     0.096040
      dxz     :     0.014220
      dyz     :     0.018885
      dx2y2   :     0.015657
      dxy     :     0.023298

  6 B s       :     2.842841  s :     2.842841
      pz      :     0.675416  p :     2.076495
      px      :     0.706954
      py      :     0.694124
      dz2     :     0.020159  d :     0.091819
      dxz     :     0.023194
      dyz     :     0.014414
      dx2y2   :     0.015223
      dxy     :     0.018829

  7 B s       :     2.740260  s :     2.740260
      pz      :     0.713292  p :     2.152457
      px      :     0.715761
      py      :     0.723404
      dz2     :     0.016526  d :     0.096039
      dxz     :     0.018875
      dyz     :     0.023303
      dx2y2   :     0.023112
      dxy     :     0.014223

  8 B s       :     2.740268  s :     2.740268
      pz      :     0.715763  p :     2.152466
      px      :     0.723449
      py      :     0.713254
      dz2     :     0.023980  d :     0.096041
      dxz     :     0.014220
      dyz     :     0.018885
      dx2y2   :     0.015657
      dxy     :     0.023298

  9 B s       :     2.740262  s :     2.740262
      pz      :     0.723391  p :     2.152491
      px      :     0.713290
      py      :     0.715811
      dz2     :     0.018924  d :     0.096041
      dxz     :     0.023316
      dyz     :     0.014227
      dx2y2   :     0.020677
      dxy     :     0.018899

 10 B s       :     2.843663  s :     2.843663
      pz      :     0.706896  p :     2.075887
      px      :     0.694007
      py      :     0.674984
      dz2     :     0.013137  d :     0.091798
      dxz     :     0.018806
      dyz     :     0.023184
      dx2y2   :     0.022251
      dxy     :     0.014420

 11 B s       :     2.842873  s :     2.842873
      pz      :     0.694179  p :     2.076486
      px      :     0.675379
      py      :     0.706928
      dz2     :     0.019795  d :     0.091818
      dxz     :     0.014418
      dyz     :     0.018816
      dx2y2   :     0.015612
      dxy     :     0.023177



                      *****************************
                      * MAYER POPULATION ANALYSIS *
                      *****************************

  NA   - Mulliken gross atomic population
  ZA   - Total nuclear charge
  QA   - Mulliken gross atomic charge
  VA   - Mayer's total valence
  BVA  - Mayer's bonded valence
  FA   - Mayer's free valence

  ATOM       NA         ZA         QA         VA         BVA        FA
  0 B      5.0078     5.0000    -0.0078     3.6551     3.6551     0.0000
  1 B      4.9922     5.0000     0.0078     3.2295     3.2295     0.0000
  2 B      4.9922     5.0000     0.0078     3.2326     3.2326    -0.0000
  3 B      4.9922     5.0000     0.0078     3.2327     3.2327     0.0000
  4 B      5.0078     5.0000    -0.0078     3.6551     3.6551     0.0000
  5 B      5.0078     5.0000    -0.0078     3.6550     3.6550     0.0000
  6 B      4.9922     5.0000     0.0078     3.2327     3.2327    -0.0000
  7 B      5.0078     5.0000    -0.0078     3.6551     3.6551     0.0000
  8 B      5.0078     5.0000    -0.0078     3.6550     3.6550     0.0000
  9 B      5.0078     5.0000    -0.0078     3.6551     3.6551     0.0000
 10 B      4.9922     5.0000     0.0078     3.2295     3.2295     0.0000
 11 B      4.9922     5.0000     0.0078     3.2326     3.2326    -0.0000

  Mayer bond orders larger than 0.100000
B(  0-B ,  1-B ) :   0.5721 B(  0-B ,  2-B ) :   0.7586 B(  0-B ,  5-B ) :   0.6430 
B(  0-B ,  6-B ) :   0.5730 B(  0-B ,  7-B ) :   0.6448 B(  0-B ,  9-B ) :   0.2147 
B(  1-B ,  2-B ) :   0.3818 B(  1-B ,  3-B ) :   0.3818 B(  1-B ,  6-B ) :   0.1229 
B(  1-B ,  7-B ) :   0.5719 B(  1-B ,  8-B ) :   0.7573 B(  1-B , 10-B ) :   0.1641 
B(  1-B , 11-B ) :   0.1229 B(  2-B ,  3-B ) :   0.1213 B(  2-B ,  4-B ) :   0.5731 
B(  2-B ,  6-B ) :   0.3818 B(  2-B ,  8-B ) :   0.5739 B(  2-B , 10-B ) :   0.1229 
B(  2-B , 11-B ) :   0.1643 B(  3-B ,  6-B ) :   0.1643 B(  3-B ,  7-B ) :   0.7587 
B(  3-B ,  8-B ) :   0.5741 B(  3-B ,  9-B ) :   0.5730 B(  3-B , 10-B ) :   0.1229 
B(  3-B , 11-B ) :   0.3818 B(  4-B ,  6-B ) :   0.7587 B(  4-B ,  7-B ) :   0.2147 
B(  4-B ,  8-B ) :   0.6430 B(  4-B ,  9-B ) :   0.6448 B(  4-B , 10-B ) :   0.5719 
B(  5-B ,  6-B ) :   0.5741 B(  5-B ,  7-B ) :   0.6430 B(  5-B ,  8-B ) :   0.2148 
B(  5-B , 10-B ) :   0.7573 B(  5-B , 11-B ) :   0.5739 B(  6-B , 10-B ) :   0.3818 
B(  6-B , 11-B ) :   0.1213 B(  7-B , 11-B ) :   0.5731 B(  8-B ,  9-B ) :   0.6430 
B(  9-B , 10-B ) :   0.5721 B(  9-B , 11-B ) :   0.7586 B( 10-B , 11-B ) :   0.3818 


-------
TIMINGS
-------

Total SCF time: 0 days 0 hours 0 min 15 sec 

Total time                  ....      15.332 sec
Sum of individual times     ....      14.749 sec  ( 96.2%)

SCF preparation             ....       1.247 sec  (  8.1%)
[...]
      dxz     :     0.015561
      dyz     :     0.014718
      dx2y2   :     0.014681
      dxy     :     0.013681

 10 B s       :     2.838726  s :     2.838726
      pz      :     0.754407  p :     2.122484
      px      :     0.711422
      py      :     0.656654
      dz2     :     0.010501  d :     0.068137
      dxz     :     0.011856
      dyz     :     0.015003
      dx2y2   :     0.016249
      dxy     :     0.014528

 11 B s       :     2.848918  s :     2.848918
      pz      :     0.709061  p :     2.115086
      px      :     0.654416
      py      :     0.751609
      dz2     :     0.013463  d :     0.067996
      dxz     :     0.014536
      dyz     :     0.011756
      dx2y2   :     0.013285
      dxy     :     0.014956



                     *******************************
                     * LOEWDIN POPULATION ANALYSIS *
                     *******************************

----------------------
LOEWDIN ATOMIC CHARGES
----------------------
   0 B :    0.037976
   1 B :   -0.037109
   2 B :   -0.038805
   3 B :   -0.036969
   4 B :    0.037457
   5 B :    0.037509
   6 B :   -0.036971
   7 B :    0.037422
   8 B :    0.037478
   9 B :    0.037992
  10 B :   -0.037159
  11 B :   -0.038821

-------------------------------
LOEWDIN REDUCED ORBITAL CHARGES
-------------------------------
  0 B s       :     2.571207  s :     2.571207
      pz      :     0.677334  p :     2.204457
      px      :     0.786461
      py      :     0.740662
      dz2     :     0.035174  d :     0.186360
      dxz     :     0.042013
      dyz     :     0.030054
      dx2y2   :     0.040308
      dxy     :     0.038811

  1 B s       :     2.664995  s :     2.664995
      pz      :     0.738912  p :     2.199080
      px      :     0.734873
      py      :     0.725295
      dz2     :     0.027286  d :     0.173034
      dxz     :     0.034372
      dyz     :     0.041003
      dx2y2   :     0.040947
      dxy     :     0.029425

  2 B s       :     2.666807  s :     2.666807
      pz      :     0.734810  p :     2.199156
      px      :     0.726059
      py      :     0.738287
      dz2     :     0.037289  d :     0.172841
      dxz     :     0.029442
      dyz     :     0.034170
      dx2y2   :     0.030993
      dxy     :     0.040947

  3 B s       :     2.665186  s :     2.665186
      pz      :     0.725174  p :     2.198836
      px      :     0.738466
      py      :     0.735196
      dz2     :     0.037827  d :     0.172947
      dxz     :     0.040945
      dyz     :     0.029360
      dx2y2   :     0.030529
      dxy     :     0.034287

  4 B s       :     2.571805  s :     2.571805
      pz      :     0.786549  p :     2.204416
      px      :     0.740482
      py      :     0.677384
      dz2     :     0.034864  d :     0.186322
      dxz     :     0.038898
      dyz     :     0.042049
      dx2y2   :     0.040383
      dxy     :     0.030129

  5 B s       :     2.571685  s :     2.571685
      pz      :     0.740291  p :     2.204370
      px      :     0.677041
      py      :     0.787038
      dz2     :     0.042973  d :     0.186436
      dxz     :     0.030182
      dyz     :     0.038772
      dx2y2   :     0.032511
      dxy     :     0.041999

  6 B s       :     2.664819  s :     2.664819
      pz      :     0.725097  p :     2.199116
      px      :     0.738732
      py      :     0.735287
      dz2     :     0.037817  d :     0.173036
      dxz     :     0.040988
      dyz     :     0.029385
      dx2y2   :     0.030549
      dxy     :     0.034296

  7 B s       :     2.571841  s :     2.571841
      pz      :     0.787023  p :     2.204354
      px      :     0.740286
      py      :     0.677045
      dz2     :     0.034923  d :     0.186383
      dxz     :     0.038899
      dyz     :     0.042037
      dx2y2   :     0.040376
      dxy     :     0.030148

  8 B s       :     2.571832  s :     2.571832
      pz      :     0.740323  p :     2.204397
      px      :     0.677327
      py      :     0.786747
      dz2     :     0.042985  d :     0.186293
      dxz     :     0.030153
      dyz     :     0.038715
      dx2y2   :     0.032484
      dxy     :     0.041956

  9 B s       :     2.571086  s :     2.571086
      pz      :     0.676670  p :     2.204354
      px      :     0.787201
      py      :     0.740484
      dz2     :     0.035170  d :     0.186567
      dxz     :     0.042029
      dyz     :     0.030074
      dx2y2   :     0.040395
      dxy     :     0.038898

 10 B s       :     2.665468  s :     2.665468
      pz      :     0.738593  p :     2.198807
      px      :     0.734949
      py      :     0.725265
      dz2     :     0.027222  d :     0.172884
      dxz     :     0.034340
      dyz     :     0.040986
      dx2y2   :     0.040909
      dxy     :     0.029427

 11 B s       :     2.667995  s :     2.667995
      pz      :     0.734821  p :     2.198320
      px      :     0.726691
      py      :     0.736809
      dz2     :     0.037237  d :     0.172505
      dxz     :     0.029408
      dyz     :     0.034057
      dx2y2   :     0.030932
      dxy     :     0.040870



                      *****************************
                      * MAYER POPULATION ANALYSIS *
                      *****************************

  NA   - Mulliken gross atomic population
  ZA   - Total nuclear charge
  QA   - Mulliken gross atomic charge
  VA   - Mayer's total valence
  BVA  - Mayer's bonded valence
  FA   - Mayer's free valence

  ATOM       NA         ZA         QA         VA         BVA        FA
  0 B      4.9722     5.0000     0.0278     4.3404     4.3404    -0.0000
  1 B      5.0275     5.0000    -0.0275     3.7709     3.7709     0.0000
  2 B      5.0285     5.0000    -0.0285     3.7574     3.7574    -0.0000
  3 B      5.0287     5.0000    -0.0287     3.7731     3.7731     0.0000
  4 B      4.9716     5.0000     0.0284     4.3347     4.3347    -0.0000
  5 B      4.9702     5.0000     0.0298     4.3321     4.3321     0.0000
  6 B      5.0277     5.0000    -0.0277     3.7725     3.7725    -0.0000
  7 B      4.9707     5.0000     0.0293     4.3326     4.3326    -0.0000
  8 B      4.9720     5.0000     0.0280     4.3358     4.3358     0.0000
  9 B      4.9695     5.0000     0.0305     4.3345     4.3345     0.0000
 10 B      5.0293     5.0000    -0.0293     3.7721     3.7721     0.0000
 11 B      5.0320     5.0000    -0.0320     3.7596     3.7596    -0.0000

  Mayer bond orders larger than 0.100000
B(  0-B ,  1-B ) :   0.5584 B(  0-B ,  2-B ) :   0.8334 B(  0-B ,  3-B ) :   0.1604 
B(  0-B ,  4-B ) :   0.1463 B(  0-B ,  5-B ) :   0.7055 B(  0-B ,  6-B ) :   0.5584 
B(  0-B ,  7-B ) :   0.7058 B(  0-B ,  8-B ) :   0.1463 B(  0-B ,  9-B ) :   0.1892 
B(  0-B , 10-B ) :   0.1605 B(  0-B , 11-B ) :   0.1762 B(  1-B ,  2-B ) :   0.2444 
B(  1-B ,  3-B ) :   0.2469 B(  1-B ,  4-B ) :   0.1607 B(  1-B ,  5-B ) :   0.1765 
B(  1-B ,  6-B ) :   0.2594 B(  1-B ,  7-B ) :   0.5490 B(  1-B ,  8-B ) :   0.8426 
B(  1-B ,  9-B ) :   0.1594 B(  1-B , 10-B ) :   0.3115 B(  1-B , 11-B ) :   0.2621 
B(  2-B ,  3-B ) :   0.2614 B(  2-B ,  4-B ) :   0.5490 B(  2-B ,  5-B ) :   0.1601 
B(  2-B ,  6-B ) :   0.2445 B(  2-B ,  7-B ) :   0.1604 B(  2-B ,  8-B ) :   0.5488 
B(  2-B ,  9-B ) :   0.1753 B(  2-B , 10-B ) :   0.2621 B(  2-B , 11-B ) :   0.3179 
B(  3-B ,  4-B ) :   0.1770 B(  3-B ,  5-B ) :   0.1599 B(  3-B ,  6-B ) :   0.3109 
B(  3-B ,  7-B ) :   0.8438 B(  3-B ,  8-B ) :   0.5505 B(  3-B ,  9-B ) :   0.5578 
B(  3-B , 10-B ) :   0.2597 B(  3-B , 11-B ) :   0.2448 B(  4-B ,  5-B ) :   0.1461 
B(  4-B ,  6-B ) :   0.8424 B(  4-B ,  7-B ) :   0.1890 B(  4-B ,  8-B ) :   0.7078 
B(  4-B ,  9-B ) :   0.7060 B(  4-B , 10-B ) :   0.5497 B(  4-B , 11-B ) :   0.1606 
B(  5-B ,  6-B ) :   0.5501 B(  5-B ,  7-B ) :   0.7087 B(  5-B ,  8-B ) :   0.1890 
B(  5-B ,  9-B ) :   0.1450 B(  5-B , 10-B ) :   0.8419 B(  5-B , 11-B ) :   0.5493 
B(  6-B ,  7-B ) :   0.1770 B(  6-B ,  8-B ) :   0.1609 B(  6-B ,  9-B ) :   0.1592 
B(  6-B , 10-B ) :   0.2474 B(  6-B , 11-B ) :   0.2623 B(  7-B ,  8-B ) :   0.1462 
B(  7-B ,  9-B ) :   0.1452 B(  7-B , 10-B ) :   0.1600 B(  7-B , 11-B ) :   0.5475 
B(  8-B ,  9-B ) :   0.7058 B(  8-B , 10-B ) :   0.1773 B(  8-B , 11-B ) :   0.1606 
B(  9-B , 10-B ) :   0.5577 B(  9-B , 11-B ) :   0.8339 B( 10-B , 11-B ) :   0.2444 


-------
TIMINGS
-------

Total SCF time: 0 days 0 hours 0 min 5 sec 

Total time                  ....       5.121 sec
Sum of individual times     ....       4.535 sec  ( 88.6%)

SCF preparation             ....       1.341 sec  ( 26.2%)
Fock matrix formation       ....       2.780 sec  ( 54.3%)
  Startup                   ....       0.017 sec  (  0.6% of F)
  Split-RI-J                ....       0.977 sec  ( 35.1% of F)
  XC integration            ....       1.965 sec  ( 70.7% of F)
    XC Preparation          ....       0.000 sec  (  0.0% of XC)
    Basis function eval.    ....       0.390 sec  ( 19.9% of XC)
    Density eval.           ....       0.336 sec  ( 17.1% of XC)
    XC-Functional eval.     ....       0.044 sec  (  2.3% of XC)
    XC-Potential eval.      ....       0.453 sec  ( 23.1% of XC)
Diagonalization             ....       0.000 sec  (  0.0%)
Density matrix formation    ....       0.052 sec  (  1.0%)
Total Energy calculation    ....       0.046 sec  (  0.9%)
Population analysis         ....       0.060 sec  (  1.2%)
Orbital Transformation      ....       0.015 sec  (  0.3%)
Orbital Orthonormalization  ....       0.000 sec  (  0.0%)
DIIS solution               ....       0.019 sec  (  0.4%)
SOSCF solution              ....       0.221 sec  (  4.3%)
Finished LeanSCF after   5.2 sec

Maximum memory used throughout the entire LEANSCF-calculation: 10.7 MB


-------------------------------------------------------------------------------
                          DFT DISPERSION CORRECTION                            
                                                                               
                              DFTD3 V3.1  Rev 1                                
                          USING Becke-Johnson damping                          
-------------------------------------------------------------------------------
The BP86 functional is recognized
Active option DFTDOPT                   ...         4   

molecular C6(AA) [au] = 4036.536167 


            DFT-D V3
 parameters
 s6 scaling factor         :     1.0000 
 a1 scaling factor         :     0.3946 
 s8 scaling factor         :     3.2822 
 a2 scaling factor         :     4.8516 
 ad hoc parameters k1-k3   :    16.0000     1.3333    -4.0000 

 Edisp/kcal,au: -23.925108653298  -0.038127083479 
 E6   /kcal   :  -6.812690425 
 E8   /kcal   : -17.112418228 
 % E8         :  71.524934228 

-------------------------   ----------------
Dispersion correction           -0.038127083
-------------------------   ----------------


-------------------------   --------------------
FINAL SINGLE POINT ENERGY      -297.635007528411
-------------------------   --------------------

                                *** OPTIMIZATION RUN DONE ***



           ************************************************************
           *        Program running with 8 parallel MPI-processes     *
           *              working on a common directory               *
           ************************************************************

------------------------------------------------------------------------------
                              ORCA PROPERTY CALCULATIONS
------------------------------------------------------------------------------

GBWName                                 ... icosahedron_nn2.00.gbw
Number of atoms                         ...     12
Number of basis functions               ...    168
Max core memory                         ...   2500 MB

Electric properties:
Dipole moment                           ... YES
Quadrupole moment                       ...  NO
Static polarizability (Dipole/Dipole)   ...  NO
Static polarizability (Dipole/Quad.)    ...  NO
Static polarizability (Quad./Quad.)     ...  NO
Static polarizability (Velocity)        ...  NO
Static hyperpolarizability              ...  NO

Atomic electric properties:
Dipole moment                           ...  NO
Quadrupole moment                       ...  NO
Static polarizability                   ...  NO

Choice of electric origin               ... Center of mass
Position of electric origin             ...    -0.000000    -0.000000    -0.000000

General magnetic properties:
Magnetizability                         ...  NO

EPR properties:
g-Tensor (aka g-matrix)                 ...  NO
Zero-Field splitting spin-orbit         ...  NO
Zero-field splitting spin-spin          ...  NO
Hyperfine couplings                     ...  NO (   0 nuclei)
Quadrupole couplings                    ...  NO (   0 nuclei)
Contact density                         ...  NO (   0 nuclei)

NMR properties:
Chemical shifts                         ...  NO (   0 nuclei)
Spin-rotation constants                 ...  NO (   0 nuclei)
Spin-spin couplings                     ...  NO (   0 nuclei,    0 pairs)

Choice of magnetic origin               ... GIAO
Position of magnetic origin             ...     0.000000     0.000000     0.000000

Properties with geometric perturbations:
SCF Hessian                             ...  NO
IR spectrum                             ...  NO
VCD spectrum                            ...  NO
X-ray spectroscopy properties:
SCF XES/XAS/RIXS spectra                ...  NO

SCF SOC stabilization energy            ...  NO
Diagonal Born-Oppenheimer correction    ...  NO

-------------
DIPOLE MOMENT
-------------

Method             : SCF
Type of density    : Electron Density
Multiplicity       :   1
Irrep              :   0
Energy             :  -297.5968804449327649 Eh
Basis              : AO
                                X                 Y                 Z
Electronic contribution:     -0.003051029      -0.000056517      -0.002571937
Nuclear contribution   :     -0.000000000      -0.000000000      -0.000000000
                        -----------------------------------------
Total Dipole Moment    :     -0.003051029      -0.000056517      -0.002571937
                        -----------------------------------------
Magnitude (a.u.)       :      0.003990843
Magnitude (Debye)      :      0.010143917



--------------------
Rotational spectrum 
--------------------
 
Rotational constants in cm-1:             0.074516             0.074450             0.070812 
Rotational constants in MHz :          2233.939921          2231.944815          2122.881255 

Dipole components along the rotational axes: 
x,y,z [a.u.] :     0.003961     0.000438     0.000221 
x,y,z [Debye]:     0.010067     0.001113     0.000561 

 

Dipole moment calculation done in   0.0 sec 

Maximum memory used throughout the entire PROP-calculation: 8.4 MB

--------------------------------
SUGGESTED CITATIONS FOR THIS RUN
--------------------------------

Below you find a list of papers that are relevant to this ORCA run
We neither can nor want to force you to cite these papers, but we appreciate if you do
You receive ORCA, which is the product of decades of hard work by many enthusiastic individuals, for free
The only thing we kindly ask in return is that you cite our papers,
We deeply appreciate it, if you show your appreciation for ORCA by not just citing the generic ORCA reference.

Please note that relegating all ORCA citations to the supporting information does *not* help us.
SI sections are not indexed - citations you put there will not count into any citation statistics
But we need these citations in order to attract the funding resources that allow us to do what we are doing

Therefore, if you are a happy ORCA user, please consider citing a few of the papers listed below in the main body of your paper

In addition to the list printed below, the program has created the file icosahedron_nn2.00.bibtex that contains the list in bibtex format
You can import this file easily into all common literature databanks and citation aid programs

It goes without saying that in many instances, there are alternative algorithms to achieve similar
results as the ones you have gotten from ORCA. It is, of course, also the case that in some instances
ORCA just re-implements algorithms worked out by others. We are fully aware of that and we are also
fully appreciative of our colleagues work. Hence this citation list should not be read as indicating
that the listed papers, which are focused on our own work, are the only ones worth citing. It simply
meant to make it easier for users to cite ORCA specific papers. It is not a substitute for doing your
own literature research and citing the relevant literature in a scientifically appropriate manner.

List of essential papers. We consider these as the minimum necessary citations

  1. Neese, F.
     Software update: the ORCA program system, version 6.0
     WIRES Comput. Molec. Sci. 2025 15(1), e70019
     doi.org/10.1002/wcms.70019

List of papers to cite with high priority. The work reported in these papers was absolutely
necessary for this run to complete.
Our perspective: the developers of density functionals and basis sets usually get cited in chemistry papers
Good! But without the algorithms to do something with them, the functionals or basis sets would not do anything.
Hence, in our opinion, the algorithm design and method developments papers are equally worthy of getting cited

  1. Neese, F.
     An improvement of the resolution of the identity approximation for the formation of the Coulomb matrix
     J. Comp. Chem. 2003 24(14), 1740-1747
     doi.org/10.1002/jcc.10318
  2. Grimme, S.; Antony, J.; Ehrlich, S.; Krieg, H.
     A consistent and accurate ab initio parametrization of density functional dispersion correction (DFT-D) for the 94 elements H-Pu
     J. Chem. Phys. 2010 132 , 154104
     doi.org/10.1063/1.3382344
  3. Grimme, S.; Ehrlich, S.; Goerigk, L.
     Effect of the damping function in dispersion corrected density functional theory
     J. Comput. Chem. 2011 32(7), 1456-1465
     doi.org/10.1002/jcc.21759
  4. Neese, F.
     The SHARK Integral Generation and Digestion System
     J. Comp. Chem. 2022 44(3), 381
     doi.org/10.1002/jcc.26942

List of suggested additional citations. These are papers that are important in the 'surrounding' of 
of this run, or papers that preceded the highly important papers. If you like your results we are grateful for a citation.

  1. Neese, F.
     The ORCA program system
     WIRES Comput. Molec. Sci. 2012 2(1), 73-78
     doi.org/10.1002/wcms.81
  2. Neese, F.
     Software update: the ORCA program system, version 4.0
     WIRES Comput. Molec. Sci. 2018 8(1), 1-6
     doi.org/10.1002/wcms.1327
  3. Neese, F.; Wennmohs, F.; Becker, U.; Riplinger, C.
     The ORCA quantum chemistry program package
     J. Chem. Phys. 2020 152(22), 224108
     doi.org/10.1063/5.0004608
  4. Neese, F.
     Software update: The ORCA program system—Version 5.0
     WIRES Comput. Molec. Sci. 2022 12(1), e1606
     doi.org/10.1002/wcms.1606

List of optional additional citations

  1. Neese, F.
     Approximate second-order SCF convergence for spin unrestricted wavefunctions
     Chem. Phys. Lett. 2000 325(1-3), 93-98
     doi.org/10.1016/s0009-2614(00)00662-x

Timings for individual modules:

Sum of individual times          ...      150.180 sec (=   2.503 min)
Startup calculation              ...       19.591 sec (=   0.327 min)  13.0 %
SCF iterations                   ...      102.689 sec (=   1.711 min)  68.4 %
Property calculations            ...        0.675 sec (=   0.011 min)   0.4 %
SCF Gradient evaluation          ...       26.569 sec (=   0.443 min)  17.7 %
Geometry relaxation              ...        0.656 sec (=   0.011 min)   0.4 %
                             ****ORCA TERMINATED NORMALLY****
TOTAL RUN TIME: 0 days 0 hours 2 minutes 39 seconds 514 msec
