
                                 *****************
                                 * O   R   C   A *
                                 *****************

                                            #,                                       
                                            ###                                      
                                            ####                                     
                                            #####                                    
                                            ######                                   
                                           ########,                                 
                                     ,,################,,,,,                         
                               ,,#################################,,                 
                          ,,##########################################,,             
                       ,#########################################, ''#####,          
                    ,#############################################,,   '####,        
                  ,##################################################,,,,####,       
                ,###########''''           ''''###############################       
              ,#####''   ,,,,##########,,,,          '''####'''          '####       
            ,##' ,,,,###########################,,,                        '##       
           ' ,,###''''                  '''############,,,                           
         ,,##''                                '''############,,,,        ,,,,,,###''
      ,#''                                            '''#######################'''  
     '                                                          ''''####''''         
             ,#######,   #######,   ,#######,      ##                                
            ,#'     '#,  ##    ##  ,#'     '#,    #''#        ,####,    ,#,          
            ##       ##  ##   ,#'  ##            #'  '#       #'       ,# #          
            ##       ##  #######   ##           ,######,      #####,      #          
            '#,     ,#'  ##    ##  '#,     ,#' ,#      #,     #,   #      #          
             '#######'   ##     ##  '#######'  #'      '#     '####' #    #          



                #########################################################
                #                        -***-                          #
                #          Department of theory and spectroscopy        #
                #                                                       #
                #                      Frank Neese                      #
                #                                                       #
                #     Directorship, Architecture, Infrastructure        #
                #                    SHARK, DRIVERS                     #
                #        Core code/Algorithms in most modules           #
                #                                                       #
                #        Max Planck Institute fuer Kohlenforschung      #
                #                Kaiser Wilhelm Platz 1                 #
                #                 D-45470 Muelheim/Ruhr                 #
                #                      Germany                          #
                #                                                       #
                #                  All rights reserved                  #
                #                        -***-                          #
                #########################################################


                         Program Version 6.1.1  -  RELEASE   -
                                (GIT: $487d211c$)
                          ($2025-11-21 10:33:24 +0100$)
                                                                         
                                  - NO-DMRG VERSION -                    
                                                                         


 With contributions from (in alphabetic order):
[Max-Planck-Institut fuer Kohlenforschung]                               
  Daniel Aravena         : Magnetic Suceptibility                        
  Michael Atanasov       : Ab Initio Ligand Field Theory (pilot matlab implementation)
  Alexander A. Auer      : GIAO ZORA, VPT2 properties, NMR spectrum      
  Ute Becker             : All parallelization in ORCA, NUMFREQ, NUMCALC 
  Giovanni Bistoni       : ED, misc. LED, open-shell LED, HFLD           
  Dmytro Bykov           : pre 5.0 version of the SCF Hessian            
  Marcos Casanova-Páez   : Triplet and SCS-CIS(D). UHF-(DLPNO)-IP/EA/STEOM-CCSD. UHF-CVS-IP/STEOM-CCSD   
  Vijay G. Chilkuri      : MRCI spin determinant printing, contributions to CSF-ICE 
  Pauline Colinet        : FMM embedding                                 
  Dipayan Datta          : RHF DLPNO-CCSD density                        
  Achintya Kumar Dutta   : EOM-CC, STEOM-CC                              
  Nicolas Foglia         : Exact transition moments, OPA infrastructure, MCD improvements    
  Dmitry Ganyushin       : Spin-Orbit,Spin-Spin,Magnetic field MRCI      
  Miquel Garcia-Rates    : C-PCM and meta-GGA Hessian, CCSD/C-PCM, Gaussian charge scheme 
  Tiago L. C. Gouveia    : GS-ROHF, GS-ROCIS                             
  Yang Guo               : DLPNO-NEVPT2, F12-NEVPT2, CIM, IAO-localization        
  Andreas Hansen         : Spin unrestricted coupled pair/coupled cluster methods 
  Ingolf Harden          : AUTO-CI MPn and infrastructure                
  Benjamin Helmich-Paris : MC-RPA, TRAH-(SCF,CASSCF), AVAS, COSX integrals, SCF dyn. polar., MC-PDFT, srDFT 
  Lee Huntington         : MR-EOM, pCC                                   
  Robert Izsak           : Overlap fitted RIJCOSX, COSX-SCS-MP3, EOM     
  Riya Kayal             : Wick's Theorem for AUTO-CI, AUTO-CI UHF-CCSDT 
  Emily Kempfer          : AUTO-CI RHF CISDT and CCSDT, approximate NEVPT4
  Christian Kollmar      : KDIIS, OOCD, Brueckner-CCSD(T), CCSD density, CASPT2, CASPT2-K, improved NEVPT2 
  Axel Koslowski         : Symmetry handling                             
  Simone Kossmann        : meta-GGA functionals, TD-DFT gradient, OOMP2, (MP2 Hessian; deprecated post 5.0) 
  Lucas Lang             : DCDCAS, Hyperfine gauge corrections, ICE-SOC+SSC
  Marvin Lechner         : AUTO-CI (C++ implementation), FIC-MRCC        
  Spencer Leger          : CASSCF response                               
  Dagmar Lenk            : GEPOL surface, SMD, ORCA-2-JSON               
  Dimitrios Liakos       : Extrapolation schemes; Compound Job, Property file
  Dimitrios Manganas     : Further ROCIS development; embedding schemes. LFT, Crystal Embedding 
  Dimitrios Pantazis     : SARC Basis sets                               
  Anastasios Papadopoulos: AUTO-CI, single reference methods and gradients 
  Taras Petrenko         : pre 6.0 DFT Hessian and TD-DFT gradient,  ECA, NRVS 
  Petra Pikulova         : Analytic Raman intensities                    
  Peter Pinski           : DLPNO-MP2, DLPNO-MP2 Gradient                 
  Shashank Vittal Rao    : ES-AILFT, MagRelax                            
  Christoph Reimann      : Effective Core Potentials                     
  Marius Retegan         : Local ZFS, SOC                                
  Christoph Riplinger    : Optimizer, TS searches, QM/MM, DLPNO-CCSD(T), (RO)-DLPNO pert. Triples 
  Michael Roemelt        : Original ROCIS implementation, recursive CI coupling coefficients
  Masaaki Saitow         : Open-shell DLPNO-CCSD energy and density      
  Barbara Sandhoefer     : DKH picture change effects                    
  Yorick L. A. Schmerwitz: GMF and freeze-and-release deltaSCF, NEB S-IDPP initial path                    
  Kantharuban Sivalingam : CASSCF convergence/infrastructure, NEVPT2, NEVPT3, NEVPT4(SD), FIC-MRCI and CEPA variants
  Bernardo de Souza      : ESD, SOC TD-DFT                               
  Georgi L. Stoychev     : AutoAux, RI-MP2 NMR, DLPNO-MP2 response, X2C  
  Van Anh Tran           : RI-MP2 g-tensors                              
  Willem Van den Heuvel  : Paramagnetic NMR                              
  Zikuan Wang            : NOTCH, Electric field optimization            
  Frank Wennmohs         : Technical directorship and infrastructure     
  Hang Xu                : AUTO-CI-Response properties                   
                                                                         
[FACCTs GmbH]                                                            
  Markus Bursch, Nicolas Foglia, Miquel Garcia-Rates, Ingolf Harden, Hagen Neugebauer, Anastasios Papadopoulos, 
  Christoph Riplinger, Bernardo de Souza, Georgi L. Stoychev                                                    
                                                                 
  APM, various basis sets, CI-OPT, improved COSX, DLPNO-Multilevel,           
  DOCKER, DRACO, updates on ESD, Fragmentator, GOAT, IRC, LR-CPCM, L-BFGS, MBIS, meta-GGA TD-DFT gradient, ML-optimized integration grids, 
  MM, NACMEs, nearIR, NEB, NEB-TS, NL-DFT gradient (VV10), 2- and 3-layer-ONIOM, interface openCOSMO-RS, QMMM,   
  Crystal-QMMM, RESP, rigid body optimization, SF, symmetry and pop. for TD-DFT, various functionals, SOLVATOR                                   
                                                                         
[Other institutions]                                                     
  V. Asgeirsson          : NEB                                           
  Christoph Bannwarth    : sTDA-DFT, sTD-DFT, PBEh-3c, B97-3c, D3        
  Giovanni Bistoni       : ETS/NOCV, ADLD/ADEX, COVALED                  
  Martin Brehm           : Molecular dynamics                            
  Ronald Cardenas        : ETS/NOCV                                      
  Martina Colucci        : COVALED                                       
  Sebastian Ehlert       : rSCAN, r2SCAN, r2SCAN-3c, D4, dhf basis sets  
  Marvin Friede          : D4 for Fr, Ra, Ac-Lr                          
  Lars Goerigk           : TD-DFT with DH, B97 family of functionals     
  Stefan Grimme          : VdW corrections, initial TS optimization, DFT functionals, gCP, sTDA/sTD-DF 
  Waldemar Hujo          : DFT-NL                                        
  H. Jonsson             : NEB                                           
  Holger Kruse           : gCP                                           
  Marcel Mueller         : wB97X-3c, vDZP basis set                      
  Hagen Neugebauer       : wr2SCAN, Native XTB                           
  Gianluca Regni         : ADLD/ADEX                                     
  Tobias Risthaus        : pre 6.0 range-separated hybrid DFT and stability analysis
  Lukas Wittmann         : regularized MP2, r2SCAN double-hybrids, wr2SCAN        
                                                                         
We gratefully acknowledge several colleagues who have allowed us to      
interface, adapt or use parts of their codes:                            
  Ed Valeev, F. Pavosevic, A. Kumar             : LibInt (2-el integral package), F12 methods 
  Garnet Chan, S. Sharma, J. Yang, R. Olivares  : DMRG                   
  Ulf Ekstrom                                   : XCFun DFT Library      
  Mihaly Kallay                                 : mrcc  (arbitrary order and MRCC methods)
  Frank Weinhold                                : gennbo (NPA and NBO analysis)           
  Simon Mueller                                 : openCOSMO-RS                            
  Christopher J. Cramer and Donald G. Truhlar   : smd solvation model                     
  S Lehtola, MJT Oliveira, MAL Marques          : LibXC Library                           
  Liviu Ungur et al                             : ANISO software                          


 Your calculation uses the libint2 library for the computation of 2-el integrals
 For citations please refer to: http://libint.valeyev.net

 Your ORCA version has been built with support for libXC version: 7.0.0
 For citations please refer to: https://libxc.gitlab.io

 This ORCA versions uses:
   CBLAS   interface :  Fast vector & matrix operations
   LAPACKE interface :  Fast linear algebra routines
   SCALAPACK package :  Parallel linear algebra routines
   Shared memory     :  Shared parallel matrices
   BLAS/LAPACK       :  OpenBLAS 0.3.29  USE64BITINT DYNAMIC_ARCH NO_AFFINITY Zen SINGLE_THREADED
        Core in use  :  Zen
   Copyright (c) 2011-2014, The OpenBLAS Project


  ***********************************
  * Starting time: Fri Apr 24 01:47:21 2026
  * Host name:     vmi3233575
  * Process ID:    1608382
  * Working dir.:  /root/b12_scan/jobs/random2_nn1.70
  ***********************************

NOTE: MaxCore=2500 MB was set to SCF,MP2,MDCI,CIPSI,MRCI,RASCI and CIS
      => If you want to overwrite this, your respective input block should be placed after the MaxCore statement
Your calculation utilizes the atom-pairwise dispersion correction
with the Becke-Johnson damping scheme (D3BJ)


================================================================================

----- Orbital basis set information -----
Your calculation utilizes the basis: def2-SVP
   F. Weigend and R. Ahlrichs, Phys. Chem. Chem. Phys. 7, 3297 (2005).

----- AuxJ basis set information -----
Your calculation utilizes the auxiliary basis: def2/J
   H-Rn: F. Weigend, Phys. Chem. Chem. Phys. 8, 1057 (2006).
   Fr-Lr: K. Eichkorn, F. Weigend, O. Treutler, R. Ahlrichs; Theor. Chem. Acc. 97, 119 (1997).

================================================================================
                                        WARNINGS
                       Please study these warnings very carefully!
================================================================================


WARNING: Geometry Optimization
  ===> : Switching off AutoStart
         For restart on a previous wavefunction, please use MOREAD

================================================================================
                                       INPUT FILE
================================================================================
NAME = random2_nn1.70.inp
|  1> ! BP86 def2-SVP def2/J RI Opt TightSCF D3BJ
|  2> ! SlowConv
|  3> 
|  4> %pal nprocs 8 end
|  5> %maxcore 2500
|  6> 
|  7> %geom
|  8>   MaxIter 300
|  9> end
| 10> 
| 11> * xyz 0 1
| 12> B     -1.21829493     -1.51368078      1.35366374
| 13> B     -2.23797727      0.29865076      0.83891261
| 14> B      1.16014125      0.07130599     -2.63720820
| 15> B     -0.19066607      0.71444517     -0.99845471
| 16> B     -0.43706553     -2.18209890     -1.46008018
| 17> B      0.28064074      2.04788617      1.12135002
| 18> B     -0.87858667      2.24622387     -0.70927657
| 19> B      2.31266238      0.56505847     -1.09605244
| 20> B      0.31376296      0.25864966      1.64144201
| 21> B      2.19320486     -0.31452119      0.62233855
| 22> B     -2.19293974     -0.59977138     -0.60358844
| 23> B      0.89511801     -1.59214784      1.92695361
| 24> *
| 25> 
| 26>                          ****END OF INPUT****
================================================================================

                       *****************************
                       * Geometry Optimization Run *
                       *****************************

Geometry optimization settings:
Update method            Update   .... BFGS
Choice of coordinates    CoordSys .... (2022) Redundant Internals
Initial Hessian          InHess   .... Almloef's Model
Max. no of cycles        MaxIter  .... 300

Convergence Tolerances:
Energy Change            TolE     ....  5.0000e-06 Eh
Max. Gradient            TolMAXG  ....  3.0000e-04 Eh/bohr
RMS Gradient             TolRMSG  ....  1.0000e-04 Eh/bohr
Max. Displacement        TolMAXD  ....  4.0000e-03 bohr
RMS Displacement         TolRMSD  ....  2.0000e-03 bohr
Strict Convergence                .... False

------------------------------------------------------------------------------
                        ORCA OPTIMIZATION COORDINATE SETUP
------------------------------------------------------------------------------

The optimization will be done in redundant internal coordinates (2022)
Making redundant internal coordinates   ...  (2022 redundants) done
Evaluating the initial hessian          ...  (Almloef) done
Evaluating the coordinates              ...  done
Calculating the B-matrix                .... done
Calculating the G-matrix                .... done
The number of degrees of freedom        ....  279

    -----------------------------------------------------------------
                    Redundant Internal Coordinates


    -----------------------------------------------------------------
         Definition                    Initial Value    Approx d2E/dq
    -----------------------------------------------------------------
      1. B(B   1,B   0)                  2.1423         0.052868   
      2. B(B   3,B   2)                  2.2190         0.039885   
      3. B(B   3,B   1)                  2.7821         0.010000   
      4. B(B   4,B   0)                  2.9957         0.010000   
      5. B(B   4,B   3)                  2.9434         0.010000   
      6. B(B   4,B   2)                  3.0024         0.010000   
      7. B(B   5,B   3)                  2.5483         0.011896   
      8. B(B   6,B   5)                  2.1759         0.046730   
      9. B(B   6,B   3)                  1.7039         0.264606   
     10. B(B   7,B   3)                  2.5097         0.013709   
     11. B(B   7,B   2)                  1.9868         0.093597   
     12. B(B   8,B   3)                  2.7260         0.010000   
     13. B(B   8,B   5)                  1.8636         0.147161   
     14. B(B   8,B   1)                  2.6753         0.010000   
     15. B(B   8,B   0)                  2.3603         0.023728   
     16. B(B   9,B   7)                  1.9341         0.113573   
     17. B(B   9,B   8)                  2.2135         0.040700   
     18. B(B  10,B   3)                  2.4274         0.018548   
     19. B(B  10,B   4)                  2.5140         0.013491   
     20. B(B  10,B   1)                  1.7000         0.268404   
     21. B(B  10,B   0)                  2.3698         0.022917   
     22. B(B  11,B   8)                  1.9609         0.102947   
     23. B(B  11,B   9)                  2.2404         0.036865   
     24. B(B  11,B   0)                  2.1912         0.044169   
     25. A(B   1,B   0,B  11)          123.5215         0.202425   
     26. A(B  10,B   0,B  11)          128.7977         0.182872   
     27. A(B   4,B   0,B  10)           54.3774         0.137086   
     28. A(B   1,B   0,B  10)           43.9068         0.186771   
     29. A(B   4,B   0,B   8)           96.4760         0.137467   
     30. A(B   1,B   0,B   4)           95.0026         0.147102   
     31. A(B   1,B   0,B   8)           72.7232         0.187544   
     32. A(B   8,B   0,B  10)           94.4779         0.170557   
     33. A(B   8,B   0,B  11)           50.8720         0.183615   
     34. A(B   4,B   0,B  11)           89.2108         0.144785   
     35. A(B   8,B   1,B  10)          102.7896         0.198549   
     36. A(B   0,B   1,B  10)           75.1782         0.259640   
     37. A(B   3,B   1,B  10)           59.9407         0.189234   
     38. A(B   0,B   1,B   3)           86.2649         0.158393   
     39. A(B   3,B   1,B   8)           59.8972         0.133549   
     40. A(B   0,B   1,B   8)           57.4022         0.164841   
     41. A(B   3,B   2,B   7)           73.0360         0.215132   
     42. A(B   3,B   2,B   4)           66.6808         0.143208   
     43. A(B   4,B   2,B   7)          101.0108         0.154753   
     44. A(B   7,B   3,B  10)          142.8333         0.157666   
     45. A(B   6,B   3,B   8)           93.4781         0.193683   
     46. A(B   7,B   3,B   8)           80.9750         0.142567   
     47. A(B   2,B   3,B   8)          123.6473         0.157214   
     48. A(B   6,B   3,B  10)           97.2436         0.223190   
     49. A(B   2,B   3,B  10)          117.7334         0.176441   
     50. A(B   5,B   3,B  10)          107.4904         0.155496   
     51. A(B   2,B   3,B   6)          129.1741         0.248580   
     52. A(B   6,B   3,B   7)          117.5697         0.214314   
     53. A(B   5,B   3,B   6)           57.5254         0.210356   
     54. A(B   5,B   3,B   7)           83.0510         0.151098   
     55. A(B   4,B   3,B  10)           54.8073         0.136875   
     56. A(B   1,B   3,B   8)           58.1047         0.131708   
     57. A(B   4,B   3,B   5)          131.3669         0.132296   
     58. A(B   1,B   3,B   5)           70.4235         0.138510   
     59. A(B   1,B   3,B   2)          153.1742         0.154105   
     60. A(B   2,B   3,B   5)          130.7996         0.168078   
     61. A(B   1,B   3,B  10)           37.3118         0.143746   
     62. A(B   1,B   3,B   4)           83.9672         0.124646   
     63. A(B   2,B   3,B   4)           69.5075         0.145934   
     64. A(B   4,B   3,B   8)           90.1621         0.126348   
     65. A(B   4,B   3,B   7)           91.0786         0.133709   
     66. A(B   1,B   3,B   6)           74.0481         0.188911   
     67. A(B   4,B   3,B   6)          151.3416         0.176372   
     68. A(B   5,B   3,B   8)           41.2098         0.140874   
     69. A(B   8,B   3,B  10)           84.5244         0.146361   
     70. A(B   2,B   3,B   7)           49.2177         0.170658   
     71. A(B   1,B   3,B   7)          138.6598         0.140125   
     72. A(B   0,B   4,B   2)          109.8472         0.117417   
     73. A(B   2,B   4,B   3)           43.8117         0.118680   
     74. A(B   0,B   4,B   3)           69.8153         0.118846   
     75. A(B   0,B   4,B  10)           50.0170         0.131652   
     76. A(B   3,B   4,B  10)           52.0966         0.133547   
     77. A(B   2,B   4,B  10)           91.8758         0.131414   
     78. A(B   3,B   5,B   6)           41.3483         0.170965   
     79. A(B   3,B   5,B   8)           74.5171         0.195264   
     80. A(B   6,B   5,B   8)          109.3773         0.233836   
     81. A(B   3,B   6,B   5)           81.1263         0.254405   
     82. A(B   3,B   7,B   9)           86.0384         0.192481   
     83. A(B   2,B   7,B   3)           57.7462         0.188048   
     84. A(B   2,B   7,B   9)          122.7068         0.248841   
     85. A(B   0,B   8,B   3)           83.5331         0.149649   
     86. A(B   3,B   8,B  11)          110.7128         0.173543   
     87. A(B   3,B   8,B   5)           64.2731         0.180665   
     88. A(B   1,B   8,B   5)           83.3948         0.184617   
     89. A(B   3,B   8,B   9)           75.7916         0.157527   
     90. A(B   1,B   8,B   9)          132.5046         0.160482   
     91. A(B   0,B   8,B   9)          107.4914         0.181879   
     92. A(B   9,B   8,B  11)           64.5885         0.218472   
     93. A(B   5,B   8,B   9)           97.7711         0.229377   
     94. A(B   0,B   8,B  11)           60.0963         0.203587   
     95. A(B   0,B   8,B   1)           49.8746         0.152264   
     96. A(B   0,B   8,B   5)          132.4822         0.213239   
     97. A(B   1,B   8,B  11)          109.9124         0.177189   
     98. A(B   1,B   8,B   3)           61.9981         0.135677   
     99. A(B   5,B   8,B  11)          162.1985         0.262187   
    100. A(B   8,B   9,B  11)           52.2366         0.191619   
    101. A(B   7,B   9,B  11)          144.3402         0.218450   
    102. A(B   7,B   9,B   8)          110.1049         0.221382   
    103. A(B   0,B  10,B   3)           90.2233         0.166134   
    104. A(B   1,B  10,B   3)           82.7474         0.223623   
    105. A(B   3,B  10,B   4)           73.0961         0.157417   
    106. A(B   0,B  10,B   4)           75.6056         0.160772   
    107. A(B   1,B  10,B   4)          129.8073         0.214264   
    108. A(B   0,B  10,B   1)           60.9150         0.230225   
    109. A(B   0,B  11,B   9)          112.7095         0.193537   
    110. A(B   8,B  11,B   9)           63.1749         0.215604   
    111. A(B   0,B  11,B   8)           69.0316         0.220891   
    112. D(B   8,B   1,B   0,B   4)    -95.2409         0.010000   
    113. D(B  10,B   1,B   0,B   8)    116.1693         0.010000   
    114. D(B  10,B   1,B   0,B  11)    113.3011         0.010000   
    115. D(B   8,B   1,B   0,B  11)     -2.8682         0.010000   
    116. D(B  10,B   1,B   0,B   4)     20.9284         0.010000   
    117. D(B   8,B   1,B   0,B  10)   -116.1693         0.010000   
    118. D(B   3,B   1,B   0,B  10)    -59.8700         0.010000   
    119. D(B   5,B   3,B   2,B   7)     17.1243         0.010000   
    120. D(B   1,B   3,B   2,B   7)   -119.4315         0.010000   
    121. D(B   5,B   3,B   2,B   4)    127.5467         0.010000   
    122. D(B  10,B   3,B   1,B   0)     75.0241         0.010000   
    123. D(B   6,B   3,B   1,B   8)   -104.6078         0.010000   
    124. D(B  10,B   3,B   2,B   4)    -26.9238         0.010000   
    125. D(B   5,B   3,B   1,B   8)    -44.0168         0.010000   
    126. D(B   6,B   3,B   2,B   7)     94.9082         0.010000   
    127. D(B   6,B   3,B   2,B   4)   -154.6694         0.010000   
    128. D(B   5,B   3,B   1,B   0)    -98.1286         0.010000   
    129. D(B   8,B   3,B   1,B  10)   -129.1359         0.010000   
    130. D(B  10,B   3,B   1,B   8)    129.1359         0.010000   
    131. D(B   6,B   3,B   1,B  10)    126.2563         0.010000   
    132. D(B   8,B   3,B   2,B   7)    -34.6116         0.010000   
    133. D(B   6,B   3,B   1,B   0)   -158.7196         0.010000   
    134. D(B   8,B   3,B   1,B   0)    -54.1118         0.010000   
    135. D(B  10,B   3,B   2,B   7)   -137.3462         0.010000   
    136. D(B   8,B   3,B   2,B   4)     75.8107         0.010000   
    137. D(B   5,B   3,B   1,B  10)   -173.1526         0.010000   
    138. D(B   3,B   4,B   0,B   1)     39.1693         0.010000   
    139. D(B  10,B   4,B   0,B   8)    -90.8785         0.010000   
    140. D(B  10,B   4,B   0,B  11)   -141.3300         0.010000   
    141. D(B   3,B   4,B   0,B  10)     56.9119         0.010000   
    142. D(B  10,B   4,B   3,B   6)    -14.3869         0.010000   
    143. D(B   0,B   4,B   3,B   8)     28.7294         0.010000   
    144. D(B   0,B   4,B   3,B  10)    -54.4501         0.010000   
    145. D(B   0,B   4,B   3,B   6)    -68.8370         0.010000   
    146. D(B  10,B   4,B   3,B   7)    164.1559         0.010000   
    147. D(B  10,B   4,B   3,B   2)   -150.6311         0.010000   
    148. D(B  10,B   4,B   3,B   1)     25.2940         0.010000   
    149. D(B  10,B   4,B   3,B   5)     82.4733         0.010000   
    150. D(B  10,B   4,B   3,B   8)     83.1795         0.010000   
    151. D(B  10,B   4,B   2,B   3)     22.7791         0.010000   
    152. D(B   3,B   4,B   0,B   8)    -33.9666         0.010000   
    153. D(B   3,B   4,B   2,B   7)     65.9485         0.010000   
    154. D(B  10,B   4,B   2,B   7)     88.7277         0.010000   
    155. D(B   0,B   4,B   2,B   3)    -25.0238         0.010000   
    156. D(B   0,B   4,B   2,B   7)     40.9247         0.010000   
    157. D(B   0,B   4,B   3,B   5)     28.0232         0.010000   
    158. D(B   3,B   4,B   0,B  11)    -84.4181         0.010000   
    159. D(B  10,B   4,B   0,B   1)    -17.7425         0.010000   
    160. D(B   6,B   5,B   3,B   1)    -83.1413         0.010000   
    161. D(B   6,B   5,B   3,B   8)   -146.7106         0.010000   
    162. D(B   8,B   5,B   3,B   2)    -97.2007         0.010000   
    163. D(B   8,B   5,B   3,B   6)    146.7106         0.010000   
    164. D(B   8,B   5,B   3,B  10)     59.2238         0.010000   
    165. D(B   8,B   5,B   3,B   7)    -84.2212         0.010000   
    166. D(B   8,B   5,B   3,B   4)      1.0719         0.010000   
    167. D(B   8,B   5,B   3,B   1)     63.5693         0.010000   
    168. D(B   6,B   5,B   3,B  10)    -87.4868         0.010000   
    169. D(B   5,B   6,B   3,B   7)    -60.3909         0.010000   
    170. D(B   5,B   6,B   3,B   1)     76.6347         0.010000   
    171. D(B   5,B   6,B   3,B   8)     21.2398         0.010000   
    172. D(B   5,B   6,B   3,B  10)    106.1543         0.010000   
    173. D(B   5,B   6,B   3,B   4)    117.9654         0.010000   
    174. D(B   5,B   6,B   3,B   2)   -118.7181         0.010000   
    175. D(B   3,B   6,B   5,B   8)    -34.1051         0.010000   
    176. D(B   9,B   7,B   3,B   5)     59.8061         0.010000   
    177. D(B   3,B   7,B   2,B   4)    -61.2508         0.010000   
    178. D(B   2,B   7,B   3,B   1)    143.4847         0.010000   
    179. D(B   2,B   7,B   3,B   8)    151.3945         0.010000   
    180. D(B   2,B   7,B   3,B   5)   -167.0239         0.010000   
    181. D(B   2,B   7,B   3,B  10)     83.0752         0.010000   
    182. D(B   2,B   7,B   3,B   6)   -119.3866         0.010000   
    183. D(B   2,B   7,B   3,B   4)     61.4017         0.010000   
    184. D(B   9,B   7,B   3,B  10)    -50.0949         0.010000   
    185. D(B   9,B   7,B   2,B   4)     -1.4043         0.010000   
    186. D(B   9,B   7,B   2,B   3)     59.8465         0.010000   
    187. D(B   9,B   7,B   3,B   6)    107.4433         0.010000   
    188. D(B   3,B   8,B   5,B   6)     22.6049         0.010000   
    189. D(B   1,B   8,B   5,B   6)    -39.4355         0.010000   
    190. D(B   0,B   8,B   5,B   3)    -52.3541         0.010000   
    191. D(B   0,B   8,B   5,B   6)    -29.7492         0.010000   
    192. D(B  11,B   8,B   5,B   6)    100.1039         0.010000   
    193. D(B  11,B   8,B   3,B   7)    -71.6537         0.010000   
    194. D(B  11,B   8,B   3,B   2)    -45.8374         0.010000   
    195. D(B  11,B   8,B   3,B   5)   -161.3917         0.010000   
    196. D(B  11,B   8,B   3,B  10)     74.0154         0.010000   
    197. D(B  11,B   8,B   3,B   6)    170.9695         0.010000   
    198. D(B   5,B   8,B   3,B   4)   -179.1955         0.010000   
    199. D(B   5,B   8,B   3,B   7)     89.7380         0.010000   
    200. D(B   5,B   8,B   3,B   2)    115.5544         0.010000   
    201. D(B   5,B   8,B   3,B   1)    -96.4080         0.010000   
    202. D(B   5,B   8,B   3,B  10)   -124.5929         0.010000   
    203. D(B   5,B   8,B   3,B   6)    -27.6388         0.010000   
    204. D(B   0,B   8,B   1,B   3)   -106.3408         0.010000   
    205. D(B   0,B   8,B   1,B  10)    -62.8363         0.010000   
    206. D(B  11,B   8,B   1,B   3)   -103.4990         0.010000   
    207. D(B  11,B   8,B   1,B   0)      2.8419         0.010000   
    208. D(B  11,B   8,B   1,B  10)    -59.9944         0.010000   
    209. D(B   5,B   8,B   1,B   3)     64.3198         0.010000   
    210. D(B   5,B   8,B   1,B   0)    170.6607         0.010000   
    211. D(B   5,B   8,B   1,B  10)    107.8244         0.010000   
    212. D(B   1,B   8,B   0,B  11)    176.9174         0.010000   
    213. D(B  11,B   8,B   3,B   1)    102.2003         0.010000   
    214. D(B   1,B   8,B   0,B  10)     38.6314         0.010000   
    215. D(B  11,B   8,B   0,B   1)   -176.9174         0.010000   
    216. D(B   5,B   8,B   0,B   4)     80.6190         0.010000   
    217. D(B  11,B   8,B   5,B   3)     77.4989         0.010000   
    218. D(B   5,B   8,B   0,B  11)    164.2915         0.010000   
    219. D(B   5,B   8,B   0,B  10)     26.0054         0.010000   
    220. D(B  11,B   8,B   0,B   4)    -83.6725         0.010000   
    221. D(B   1,B   8,B   5,B   3)    -62.0405         0.010000   
    222. D(B   5,B   8,B   0,B   1)    -12.6259         0.010000   
    223. D(B  11,B   8,B   0,B  10)   -138.2861         0.010000   
    224. D(B  11,B   9,B   8,B   5)    177.4945         0.010000   
    225. D(B   7,B   9,B   8,B   3)     22.5679         0.010000   
    226. D(B   7,B   9,B   8,B   1)     49.8207         0.010000   
    227. D(B   7,B   9,B   8,B   0)    100.9370         0.010000   
    228. D(B   7,B   9,B   8,B  11)    144.1831         0.010000   
    229. D(B   7,B   9,B   8,B   5)    -38.3224         0.010000   
    230. D(B  11,B   9,B   7,B   3)     28.6238         0.010000   
    231. D(B  11,B   9,B   7,B   2)    -18.5153         0.010000   
    232. D(B   8,B   9,B   7,B   3)    -23.8960         0.010000   
    233. D(B  11,B   9,B   8,B   0)    -43.2462         0.010000   
    234. D(B   8,B   9,B   7,B   2)    -71.0351         0.010000   
    235. D(B   3,B  10,B   0,B   1)     81.5684         0.010000   
    236. D(B   1,B  10,B   0,B   4)   -154.0391         0.010000   
    237. D(B   1,B  10,B   0,B   8)    -59.2745         0.010000   
    238. D(B   1,B  10,B   0,B  11)   -100.7513         0.010000   
    239. D(B   3,B  10,B   4,B   0)     94.7151         0.010000   
    240. D(B   0,B  10,B   4,B   3)    -94.7151         0.010000   
    241. D(B   1,B  10,B   4,B   2)    -84.7068         0.010000   
    242. D(B   1,B  10,B   4,B   0)     29.8670         0.010000   
    243. D(B   1,B  10,B   4,B   3)    -64.8481         0.010000   
    244. D(B   0,B  10,B   3,B   1)    -60.6248         0.010000   
    245. D(B   0,B  10,B   3,B   8)    -19.2060         0.010000   
    246. D(B   0,B  10,B   3,B   5)    -53.8609         0.010000   
    247. D(B   1,B  10,B   3,B   4)    135.4949         0.010000   
    248. D(B   1,B  10,B   3,B   7)    108.6332         0.010000   
    249. D(B   1,B  10,B   3,B   2)    166.7613         0.010000   
    250. D(B   1,B  10,B   3,B   8)     41.4188         0.010000   
    251. D(B   1,B  10,B   3,B   5)      6.7639         0.010000   
    252. D(B   1,B  10,B   3,B   6)    -51.4042         0.010000   
    253. D(B   0,B  10,B   3,B   6)   -112.0290         0.010000   
    254. D(B   4,B  10,B   1,B   8)     17.3356         0.010000   
    255. D(B   4,B  10,B   1,B   0)    -33.5014         0.010000   
    256. D(B   3,B  10,B   1,B   8)    -43.4806         0.010000   
    257. D(B   3,B  10,B   1,B   0)    -94.3176         0.010000   
    258. D(B   0,B  10,B   1,B   3)     94.3176         0.010000   
    259. D(B   0,B  10,B   1,B   8)     50.8370         0.010000   
    260. D(B   3,B  10,B   0,B   4)    -72.4707         0.010000   
    261. D(B   0,B  10,B   4,B   2)   -114.5739         0.010000   
    262. D(B   3,B  10,B   0,B   8)     22.2939         0.010000   
    263. D(B   3,B  10,B   0,B  11)    -19.1830         0.010000   
    264. D(B   0,B  11,B   9,B   8)     49.7340         0.010000   
    265. D(B   8,B  11,B   9,B   7)    -70.5012         0.010000   
    266. D(B   9,B  11,B   8,B   1)    128.5716         0.010000   
    267. D(B   9,B  11,B   8,B   0)    131.0781         0.010000   
    268. D(B   9,B  11,B   8,B   5)     -8.1450         0.010000   
    269. D(B   0,B  11,B   8,B   9)   -131.0781         0.010000   
    270. D(B   0,B  11,B   8,B   3)    -69.1227         0.010000   
    271. D(B   0,B  11,B   8,B   1)     -2.5065         0.010000   
    272. D(B   0,B  11,B   8,B   5)   -139.2231         0.010000   
    273. D(B   9,B  11,B   0,B   8)    -46.8218         0.010000   
    274. D(B   9,B  11,B   0,B  10)     11.5188         0.010000   
    275. D(B   9,B  11,B   0,B   1)    -43.2906         0.010000   
    276. D(B   8,B  11,B   0,B   4)     99.0104         0.010000   
    277. D(B   0,B  11,B   9,B   7)    -20.7672         0.010000   
    278. D(B   8,B  11,B   0,B  10)     58.3406         0.010000   
    279. D(B   8,B  11,B   0,B   1)      3.5313         0.010000   
    -----------------------------------------------------------------

Number of atoms                         .... 12
Number of degrees of freedom            .... 279


         *************************************************************
         *                GEOMETRY OPTIMIZATION CYCLE   1            *
         *************************************************************
---------------------------------
CARTESIAN COORDINATES (ANGSTROEM)
---------------------------------
  B     -1.218295   -1.513681    1.353664
  B     -2.237977    0.298651    0.838913
  B      1.160141    0.071306   -2.637208
  B     -0.190666    0.714445   -0.998455
  B     -0.437066   -2.182099   -1.460080
  B      0.280641    2.047886    1.121350
  B     -0.878587    2.246224   -0.709277
  B      2.312662    0.565058   -1.096052
  B      0.313763    0.258650    1.641442
  B      2.193205   -0.314521    0.622339
  B     -2.192940   -0.599771   -0.603588
  B      0.895118   -1.592148    1.926954

----------------------------
CARTESIAN COORDINATES (A.U.)
----------------------------
  NO LB      ZA    FRAG     MASS         X           Y           Z
   0 B     5.0000    0    10.810   -2.302244   -2.860442    2.558054
   1 B     5.0000    0    10.810   -4.229164    0.564368    1.585315
   2 B     5.0000    0    10.810    2.192349    0.134749   -4.983601
   3 B     5.0000    0    10.810   -0.360307    1.350106   -1.886806
   4 B     5.0000    0    10.810   -0.825934   -4.123569   -2.759152
   5 B     5.0000    0    10.810    0.530334    3.869944    2.119044
   6 B     5.0000    0    10.810   -1.660288    4.244748   -1.340338
   7 B     5.0000    0    10.810    4.370299    1.067806   -2.071239
   8 B     5.0000    0    10.810    0.592926    0.488777    3.101876
   9 B     5.0000    0    10.810    4.144557   -0.594359    1.176049
  10 B     5.0000    0    10.810   -4.144056   -1.133404   -1.140617
  11 B     5.0000    0    10.810    1.691528   -3.008723    3.641415

--------------------------------
INTERNAL COORDINATES (ANGSTROEM)
--------------------------------
 B      0   0   0     0.000000000000     0.00000000     0.00000000
 B      1   0   0     2.142257316763     0.00000000     0.00000000
 B      2   1   0     4.866447472862    78.44816554     0.00000000
 B      3   2   1     2.218968549034    14.95115836   229.53962137
 B      4   3   2     2.943429686249    69.50752607     9.00914114
 B      4   3   5     2.548287091943   130.79958544   127.54670514
 B      4   3   5     1.703879319181   129.17411088   205.33062014
 B      3   2   1     1.986770631750    80.75630206   287.10540461
 B      6   4   3     1.863587950229    74.51710769   262.79925344
 B      8   3   2     1.934114286148   122.70684613    46.68739259
 B      2   1   3     1.700000000001    75.17816468    50.84326119
 B      9   6   4     1.960852353927   162.19853706    77.49894382

---------------------------
INTERNAL COORDINATES (A.U.)
---------------------------
 B      0   0   0     0.000000000000     0.00000000     0.00000000
 B      1   0   0     4.048279637070     0.00000000     0.00000000
 B      2   1   0     9.196252968823    78.44816554     0.00000000
 B      3   2   1     4.193242857460    14.95115836   229.53962137
 B      4   3   2     5.562276001465    69.50752607     9.00914114
 B      4   3   5     4.815564714379   130.79958544   127.54670514
 B      4   3   5     3.219865278504   129.17411088   205.33062014
 B      3   2   1     3.754452384925    80.75630206   287.10540461
 B      6   4   3     3.521670852408    74.51710769   262.79925344
 B      8   3   2     3.654946312525   122.70684613    46.68739259
 B      2   1   3     3.212534427667    75.17816468    50.84326119
 B      9   6   4     3.705473937977   162.19853706    77.49894382

---------------------
BASIS SET INFORMATION
---------------------
There are 1 groups of distinct atoms

 Group   1 Type B   : 7s4p1d contracted to 3s2p1d pattern {511/31/1}

Atom   0B    basis set group =>   1
Atom   1B    basis set group =>   1
Atom   2B    basis set group =>   1
Atom   3B    basis set group =>   1
Atom   4B    basis set group =>   1
Atom   5B    basis set group =>   1
Atom   6B    basis set group =>   1
Atom   7B    basis set group =>   1
Atom   8B    basis set group =>   1
Atom   9B    basis set group =>   1
Atom  10B    basis set group =>   1
Atom  11B    basis set group =>   1
---------------------------------
AUXILIARY/J BASIS SET INFORMATION
---------------------------------
There are 1 groups of distinct atoms

 Group   1 Type B   : 12s5p4d2f1g contracted to 6s4p3d1f1g pattern {711111/2111/211/2/1}

Atom   0B    basis set group =>   1
Atom   1B    basis set group =>   1
Atom   2B    basis set group =>   1
Atom   3B    basis set group =>   1
Atom   4B    basis set group =>   1
Atom   5B    basis set group =>   1
Atom   6B    basis set group =>   1
Atom   7B    basis set group =>   1
Atom   8B    basis set group =>   1
Atom   9B    basis set group =>   1
Atom  10B    basis set group =>   1
Atom  11B    basis set group =>   1


           ************************************************************
           *        Program running with 8 parallel MPI-processes     *
           *              working on a common directory               *
           ************************************************************
------------------------------------------------------------------------------
                             ORCA STARTUP CALCULATIONS
                           -- RI-GTO INTEGRALS CHOSEN --
------------------------------------------------------------------------------
------------------------------------------------------------------------------
                   ___                                                        
                  /   \      - P O W E R E D   B Y -                         
                 /     \                                                     
                 |  |  |   _    _      __       _____    __    __             
                 |  |  |  | |  | |    /  \     |  _  \  |  |  /  |          
                  \  \/   | |  | |   /    \    | | | |  |  | /  /          
                 / \  \   | |__| |  /  /\  \   | |_| |  |  |/  /          
                |  |  |   |  __  | /  /__\  \  |    /   |      \           
                |  |  |   | |  | | |   __   |  |    \   |  |\   \          
                \     /   | |  | | |  |  |  |  | |\  \  |  | \   \       
                 \___/    |_|  |_| |__|  |__|  |_| \__\ |__|  \__/        
                                                                              
                      - O R C A' S   B I G   F R I E N D -                    
                                      &                                       
                       - I N T E G R A L  F E E D E R -                       
                                                                              
 v1 FN, 2020, v2 2021, v3 2022-2024                                           
------------------------------------------------------------------------------


----------------------
SHARK INTEGRAL PACKAGE
----------------------

Number of atoms                             ...     12
Number of basis functions                   ...    168
Number of shells                            ...     72
Maximum angular momentum                    ...      2
Integral batch strategy                     ... SHARK/LIBINT Hybrid
RI-J (if used) integral strategy            ... SPLIT-RIJ (Revised 2003 algorithm where possible)
Printlevel                                  ...      1
Contraction scheme used                     ... SEGMENTED contraction
Prescreening option                         ... SCHWARTZ
   Thresh                                   ... 2.500e-11
   Tcut                                     ... 2.500e-12
   Tpresel                                  ... 2.500e-12 
Coulomb Range Separation                    ... NOT USED
Exchange Range Separation                   ... NOT USED
Multipole approximations                    ... NOT USED
Finite Nucleus Model                        ... NOT USED
CABS basis                                  ... NOT available
Auxiliary Coulomb fitting basis             ... AVAILABLE
   # of basis functions in Aux-J            ...    588
   # of shells in Aux-J                     ...    180
   Maximum angular momentum in Aux-J        ...      4
Auxiliary J/K fitting basis                 ... NOT available
Auxiliary Correlation fitting basis         ... NOT available
Auxiliary 'external' fitting basis          ... NOT available

Checking pre-screening integrals            ... done (  0.0 sec) Dimension = 72
   => SHARK Basis and OBASIS are compatible. Storing Pre-screening
Shell pair information
Shell pair cut-off parameter TPreSel        ...   2.5e-12
Total number of shell pairs                 ...      2628
Shell pairs after pre-screening             ...      2555
Total number of primitive shell pairs       ...     10596
Primitive shell pairs kept                  ...      7450
          la=0 lb=0:    615 shell pairs
          la=1 lb=0:    864 shell pairs
          la=1 lb=1:    300 shell pairs
          la=2 lb=0:    410 shell pairs
          la=2 lb=1:    288 shell pairs
          la=2 lb=2:     78 shell pairs

Checking whether 4 symmetric matrices of dimension 168 fit in memory
:Max Core in MB      =   2500.00
 MB in use           =      6.80
 MB left             =   2493.20
 MB needed           =      0.43
 Data fit in memory  = YES
Calculating RI/J V-Matrix + Cholesky decomp.... done (  0.0 sec)
Calculating Nuclear repulsion               ... done (  0.0 sec) ENN=    282.307905578163 Eh

Diagonalization of the overlap matrix:
Smallest eigenvalue                        ... 8.593e-04
Time for diagonalization                   ...    0.004 sec
Threshold for overlap eigenvalues          ... 1.000e-07
Number of eigenvalues below threshold      ... 0
Time for construction of square roots      ...    0.002 sec
Total time needed                          ...    0.007 sec

-------------------
DFT GRID GENERATION
-------------------

General Integration Accuracy     IntAcc      ... 4.388
Radial Grid Type                 RadialGrid  ... OptM3 with GC (2021)
Angular Grid (max. ang.)         AngularGrid ... 4 (Lebedev-302)
Angular grid pruning method      GridPruning ... 4 (adaptive)
Weight generation scheme         WeightScheme... mBecke (2022)
Basis function cutoff            BFCut       ... 1.0000e-11
Integration weight cutoff        WCut        ... 1.0000e-14
Partially contracted basis set               ... off
Rotationally invariant grid construction     ... off
Angular grids for H and He will be reduced by one unit

Total number of grid points                  ...    71990
Total number of batches                      ...     1129
Average number of points per batch           ...       63
Average number of grid points per atom       ...     5999
Grids setup in   0.7 sec
Initializing property integral containers    ... done (  0.0 sec)

SHARK setup successfully completed in   0.8 seconds

Maximum memory used throughout the entire STARTUP-calculation: 19.9 MB


           ************************************************************
           *        Program running with 8 parallel MPI-processes     *
           *              working on a common directory               *
           ************************************************************
-------------------------------------------------------------------------------
                                 ORCA GUESS
                   Start orbitals & Density for SCF / CASSCF
-------------------------------------------------------------------------------

------------
SCF SETTINGS
------------
Hamiltonian:
 Density Functional     Method          .... DFT(GTOs)
 Exchange Functional    Exchange        .... B88
   X-Alpha parameter    XAlpha          ....  0.666667
   Becke's b parameter  XBeta           ....  0.004200
 Correlation Functional Correlation     .... P86
 LDA part of GGA corr.  LDAOpt          .... PW91-LDA
 Gradients option       PostSCFGGA      .... off
   NL short-range parameter             ....  4.400000
 RI-approximation to the Coulomb term is turned on
   Number of AuxJ basis functions       .... 588


General Settings:
 Integral files         IntName         .... random2_nn1.70
 Hartree-Fock type      HFTyp           .... RHF
 Total Charge           Charge          ....    0
 Multiplicity           Mult            ....    1
 Number of Electrons    NEL             ....   60
 Basis Dimension        Dim             ....  168
 Nuclear Repulsion      ENuc            ....    282.3079055782 Eh

Convergence Acceleration:
 AO-DIIS                CNVDIIS         .... on
   Start iteration      DIISMaxIt       ....     0
   Startup error        DIISStart       ....  0.200000
   # of expansion vecs  DIISMaxEq       ....     5
   Bias factor          DIISBfac        ....   1.050
   Max. coefficient     DIISMaxC        ....  10.000
 MO-DIIS                CNVKDIIS        .... off
 Trust-Rad. Augm. Hess. CNVTRAH         .... auto
   Auto Start mean grad. ratio tolernc. ....  1.125000
   Auto Start start iteration           ....    50
   Auto Start num. interpolation iter.  ....    10
   Max. Number of Micro iterations      ....    24
   Max. Number of Macro iterations      .... Maxiter - #DIIS iter
   Number of Davidson start vectors     ....     2
   Converg. threshold    (grad. norm)   ....   1.000e-05
   Grad. Scal. Fac. for Micro threshold ....   0.100
   Minimum threshold for Micro iter.    ....   1.000e-02
   NR start threshold (gradient norm)   ....   1.000e-04
   Initial trust radius                 ....   0.400
   Minimum AH scaling param. (alpha)    ....   1.000
   Maximum AH scaling param. (alpha)    .... 1000.000
   Quad. conv. algorithm                .... NR
   White noise on init. David. guess    .... on
   Maximum white noise                  ....   0.010
   Pseudo random numbers                .... off
   Inactive MOs                         .... canonical
   Orbital update algorithm             .... Taylor
   Preconditioner                       .... Diag
   Full preconditioner red. dimension   ....   250
 SOSCF                 CNVSOSCF           .... on
   Start iteration     SOSCFMaxIt         ....   150
   Startup grad/error  SOSCFStart         ....  0.001000
   Hessian update      SOSCFHessUp        .... L-BFGS
   Autom. constraints  SOSCFAutoConstrain .... off
 Level Shifting         CNVShift        .... on
   Level shift para.    LevelShift      ....    0.2500
   Turn off err/grad.   ShiftErr        ....    0.0000
 Zerner damping         CNVZerner       .... off
 Static damping         CNVDamp         .... on
   Fraction old density DampFac         ....    0.8500
   Max. Damping (<1)    DampMax         ....    0.9800
   Min. Damping (>=0)   DampMin         ....    0.0000
   Turn off err/grad.   DampErr         ....    0.0300

SCF Procedure:
 Maximum # iterations   MaxIter         ....   125
 SCF integral mode      SCFMode         .... Direct
   Integral package                     .... SHARK and LIBINT hybrid scheme
 Reset frequency        DirectResetFreq ....    20
 Integral Threshold     Thresh          ....  2.500e-11 Eh
 Primitive CutOff       TCut            ....  2.500e-12 Eh

Convergence Tolerance:
 Convergence Check Mode ConvCheckMode   .... Total+1el-Energy
 Convergence forced     ConvForced      .... 0
 Energy Change          TolE            ....  1.000e-08 Eh
 1-El. energy change                    ....  1.000e-05 Eh
 Orbital Gradient       TolG            ....  1.000e-05
 Orbital Rotation angle TolX            ....  1.000e-05
 DIIS Error             TolErr          ....  5.000e-07

------------------------------
INITIAL GUESS: MODEL POTENTIAL
------------------------------
Loading Hartree-Fock densities                     ... done
Calculating cut-offs                               ... done
Initializing the effective Hamiltonian             ... done
Setting up the integral package (SHARK)            ... done
Starting the Coulomb interaction                   ... done (   0.0 sec)
Making the grid                                    ... done (   0.2 sec)
Mapping shells                                     ... done
Starting the XC term evaluation                    ... done (   0.0 sec)
  promolecular density results
     # of electrons  =     59.999292787
     EX              =    -44.849397118
     EC              =     -1.852156029
     EX+EC           =    -46.701553147
Transforming the Hamiltonian                       ... done (   0.0 sec)
Diagonalizing the Hamiltonian                      ... done (   0.0 sec)
Back transforming the eigenvectors                 ... done (   0.0 sec)
Now organizing SCF variables                       ... done
                      ------------------
                      INITIAL GUESS DONE (   0.4 sec)
                      ------------------
             **** ENERGY FILE WAS UPDATED (random2_nn1.70.en.tmp) ****
Finished Guess after   0.8 sec
Maximum memory used throughout the entire GUESS-calculation: 9.6 MB


           ************************************************************
           *        Program running with 8 parallel MPI-processes     *
           *              working on a common directory               *
           ************************************************************

-------------------------------------------------------------------------------------------
                                      ORCA LEAN-SCF
                              memory conserving SCF solver
-------------------------------------------------------------------------------------------

----------------------------------------D-I-I-S--------------------------------------------
Iteration    Energy (Eh)           Delta-E    RMSDP     MaxDP     DIISErr   Damp  Time(sec)
-------------------------------------------------------------------------------------------
               ***  Starting incremental Fock matrix formation  ***
    1    -296.5738353043527695     0.00e+00  6.53e-03  5.57e-02  8.16e-02  0.850   0.5
Warning: op=0 Small HOMO/LUMO gap (  -0.046) - skipping pre-diagonalization
         Will do a full diagonalization
    2    -296.6670639475865983    -9.32e-02  7.89e-03  5.79e-02  5.09e-02  0.850   0.5
                               ***Turning on AO-DIIS***
    3    -296.7027619093025805    -3.57e-02  4.69e-03  3.38e-02  2.11e-02  0.850   0.3
    4    -296.7009381153699223     1.82e-03  1.94e-02  1.27e-01  2.18e-02  0.000   0.3
    5    -296.5836968408973462     1.17e-01  6.65e-03  4.99e-02  1.16e-01  0.000   0.8
    6    -296.7041090310269738    -1.20e-01  7.68e-04  6.14e-03  6.82e-02  0.850   0.8
    7    -296.7125778513826617    -8.47e-03  1.10e-03  9.19e-03  6.39e-02  0.850   0.5
    8    -296.7246711772424987    -1.21e-02  1.36e-03  1.07e-02  5.71e-02  0.850   0.3
    9    -296.7388160129992229    -1.41e-02  1.65e-03  1.37e-02  4.78e-02  0.850   0.3
   10    -296.7512824472416924    -1.25e-02  1.50e-03  1.28e-02  3.87e-02  0.850   0.5
   11    -296.7609614526913901    -9.68e-03  1.30e-03  1.13e-02  3.03e-02  0.850   0.5
   12    -296.7678258218711562    -6.86e-03  1.11e-03  9.95e-03  2.32e-02  0.850   0.9
   13    -296.7725006876030420    -4.67e-03  6.25e-03  5.83e-02  1.74e-02  0.000   0.4
   14    -296.7822052780637705    -9.70e-03  8.23e-04  7.83e-03  1.08e-02  0.000   0.4
   15    -296.7836083288260625    -1.40e-03  6.03e-04  4.04e-03  6.51e-03  0.000   0.5
   16    -296.7841000239634468    -4.92e-04  3.78e-04  2.64e-03  4.30e-03  0.000   0.5
   17    -296.7843479785148020    -2.48e-04  2.77e-04  1.76e-03  2.46e-03  0.000   0.4
   18    -296.7844439884320309    -9.60e-05  1.95e-04  1.41e-03  1.71e-03  0.000   0.3
                              *** Initializing SOSCF ***
---------------------------------------S-O-S-C-F--------------------------------------
Iteration    Energy (Eh)           Delta-E    RMSDP     MaxDP     MaxGrad    Time(sec)
--------------------------------------------------------------------------------------
   19    -296.7844942959086438    -5.03e-05  1.57e-04  9.10e-04  7.56e-04     0.4
               *** Restarting incremental Fock matrix formation ***
   20    -296.7845139226702713    -1.96e-05  3.86e-04  2.26e-03  5.42e-04     0.3
   21    -296.7844946044980361     1.93e-05  3.11e-04  1.55e-03  1.07e-03     0.3
   22    -296.7845453341119537    -5.07e-05  5.44e-04  4.06e-03  4.90e-04     0.3
   23    -296.7845417293132186     3.60e-06  3.94e-04  1.59e-03  6.25e-04     0.3
   24    -296.7845856631051902    -4.39e-05  8.35e-04  5.18e-03  3.56e-04     0.3
   25    -296.7845865038448210    -8.41e-07  6.14e-04  2.70e-03  7.09e-04     0.3
   26    -296.7846362694722302    -4.98e-05  1.23e-03  5.68e-03  4.20e-04     0.4
   27    -296.7846273180105072     8.95e-06  6.60e-04  3.06e-03  1.08e-03     0.3
   28    -296.7846957739293430    -6.85e-05  1.22e-03  5.25e-03  5.01e-04     0.3
   29    -296.7847255926719754    -2.98e-05  1.98e-03  9.16e-03  4.40e-04     0.3
   30    -296.7847890195736227    -6.34e-05  6.12e-03  2.91e-02  5.59e-04     0.3
   31    -296.7848706213544574    -8.16e-05  1.53e-03  7.37e-03  1.55e-03     0.3
   32    -296.7849556302472820    -8.50e-05  1.72e-03  6.74e-03  1.00e-03     0.3
               *** Scaled step length from 0.207609 to 0.200000 ***
   33    -296.7851379061797843    -1.82e-04  6.72e-03  3.29e-02  6.99e-04     0.3
   34    -296.7850640890113709     7.38e-05  3.96e-03  1.77e-02  2.21e-03     0.3
   35    -296.7853507203939216    -2.87e-04  1.62e-03  6.78e-03  7.42e-04     0.3
   36    -296.7854588474739330    -1.08e-04  5.01e-03  2.65e-02  7.19e-04     0.3
   37    -296.7855636299909747    -1.05e-04  1.74e-03  9.17e-03  1.87e-03     0.3
   38    -296.7857182161485525    -1.55e-04  1.58e-03  8.37e-03  5.86e-04     0.5
   39    -296.7858214773473264    -1.03e-04  5.66e-03  3.22e-02  6.04e-04     0.3
               *** Restarting incremental Fock matrix formation ***
   40    -296.7856711888349537     1.50e-04  3.74e-03  1.99e-02  2.14e-03     0.4
   41    -296.7859602254424090    -2.89e-04  9.91e-04  5.45e-03  4.89e-04     0.3
   42    -296.7860071372092534    -4.69e-05  2.71e-03  1.57e-02  3.27e-04     0.4
   43    -296.7860139450132237    -6.81e-06  1.32e-03  7.14e-03  8.29e-04     0.3
   44    -296.7860542954679204    -4.04e-05  2.80e-04  2.15e-03  2.12e-04     0.5
   45    -296.7860604105361517    -6.12e-06  5.26e-04  3.00e-03  2.23e-04     0.3
   46    -296.7860659127530880    -5.50e-06  1.28e-04  6.95e-04  1.27e-04     0.3
   47    -296.7860671018510175    -1.19e-06  1.14e-04  5.04e-04  5.95e-05     0.3
   48    -296.7860679740774685    -8.72e-07  6.59e-05  3.04e-04  7.71e-05     0.3
   49    -296.7860682942730364    -3.20e-07  3.22e-05  1.92e-04  3.83e-05     0.3
   50    -296.7860684945060257    -2.00e-07  1.87e-05  6.15e-05  1.59e-05     0.3
   51    -296.7860685313884233    -3.69e-08  1.35e-05  4.53e-05  8.82e-06     0.4
   52    -296.7860685539593533    -2.26e-08  1.18e-05  4.24e-05  5.37e-06     0.3
   53    -296.7860685641550162    -1.02e-08  3.51e-06  1.29e-05  3.93e-06     0.3
   54    -296.7860685660679110    -1.91e-09  3.97e-06  1.48e-05  2.72e-06     0.3
                 **** Energy Check signals convergence ****

               *****************************************************
               *                     SUCCESS                       *
               *           SCF CONVERGED AFTER  54 CYCLES          *
               *****************************************************

             **** ENERGY FILE WAS UPDATED (random2_nn1.70.en.tmp) ****

----------------
TOTAL SCF ENERGY
----------------

Total Energy       :       -296.78606856877184 Eh           -8075.95950 eV

Components:
Nuclear Repulsion  :        282.30790557816272 Eh            7681.98866 eV
Electronic Energy  :       -579.09397414693456 Eh          -15757.94816 eV
One Electron Energy:       -952.51914313195539 Eh          -25919.36360 eV
Two Electron Energy:        373.42516898502083 Eh           10161.41544 eV

Virial components:
Potential Energy   :       -587.79392289538680 Eh          -15994.68580 eV
Kinetic Energy     :        291.00785432661496 Eh            7918.72630 eV
Virial Ratio       :          2.01985587040435

DFT components:
N(Alpha)           :       29.999986291026 electrons
N(Beta)            :       29.999986291026 electrons
N(Total)           :       59.999972582051 electrons
E(X)               :      -45.082685028897 Eh       
E(C)               :       -1.879163492734 Eh       
E(XC)              :      -46.961848521630 Eh       

---------------
SCF CONVERGENCE
---------------

  Last Energy change         ...    1.9129e-09  Tolerance :   1.0000e-08
  Last MAX-Density change    ...    1.4751e-05  Tolerance :   1.0000e-07
  Last RMS-Density change    ...    3.9696e-06  Tolerance :   5.0000e-09
  Last DIIS Error            ...    7.5555e-04  Tolerance :   5.0000e-07
  Last Orbital Gradient      ...    2.7177e-06  Tolerance :   1.0000e-05
  Last Orbital Rotation      ...    6.4435e-05  Tolerance :   1.0000e-05


----------------
ORBITAL ENERGIES
----------------

  NO   OCC          E(Eh)            E(eV) 
   0   2.0000      -6.680964      -181.7983 
   1   2.0000      -6.665956      -181.3899 
   2   2.0000      -6.662628      -181.2993 
   3   2.0000      -6.649553      -180.9435 
   4   2.0000      -6.648757      -180.9219 
   5   2.0000      -6.643417      -180.7766 
   6   2.0000      -6.640634      -180.7008 
   7   2.0000      -6.637360      -180.6117 
   8   2.0000      -6.637285      -180.6097 
   9   2.0000      -6.627981      -180.3565 
  10   2.0000      -6.623141      -180.2248 
  11   2.0000      -6.622586      -180.2097 
  12   2.0000      -0.560643       -15.2559 
  13   2.0000      -0.501812       -13.6550 
  14   2.0000      -0.498863       -13.5748 
  15   2.0000      -0.467547       -12.7226 
  16   2.0000      -0.416135       -11.3236 
  17   2.0000      -0.394344       -10.7307 
  18   2.0000      -0.384134       -10.4528 
  19   2.0000      -0.355545        -9.6749 
  20   2.0000      -0.315282        -8.5793 
  21   2.0000      -0.296423        -8.0661 
  22   2.0000      -0.284510        -7.7419 
  23   2.0000      -0.271462        -7.3869 
  24   2.0000      -0.262636        -7.1467 
  25   2.0000      -0.253045        -6.8857 
  26   2.0000      -0.241981        -6.5846 
  27   2.0000      -0.228162        -6.2086 
  28   2.0000      -0.214428        -5.8349 
  29   2.0000      -0.203726        -5.5437 
  30   0.0000      -0.207165        -5.6372 
  31   0.0000      -0.195628        -5.3233 
  32   0.0000      -0.185194        -5.0394 
  33   0.0000      -0.171703        -4.6723 
  34   0.0000      -0.164756        -4.4832 
  35   0.0000      -0.155670        -4.2360 
  36   0.0000      -0.146455        -3.9852 
  37   0.0000      -0.126295        -3.4367 
  38   0.0000      -0.119061        -3.2398 
  39   0.0000      -0.112591        -3.0638 
  40   0.0000      -0.094738        -2.5779 
*Only the first 10 virtual orbitals were printed.

                    ********************************
                    * MULLIKEN POPULATION ANALYSIS *
                    ********************************

-----------------------
MULLIKEN ATOMIC CHARGES
-----------------------
   0 B :   -0.012143
   1 B :   -0.074265
   2 B :    0.065160
   3 B :   -0.280134
   4 B :    0.160873
   5 B :   -0.039393
   6 B :    0.055363
   7 B :    0.074347
   8 B :    0.001529
   9 B :    0.017200
  10 B :   -0.012080
  11 B :    0.043541
Sum of atomic charges:   -0.0000000

--------------------------------
MULLIKEN REDUCED ORBITAL CHARGES
--------------------------------
  0 B s       :     3.569769  s :     3.569769
      pz      :     0.402436  p :     1.422389
      px      :     0.493888
      py      :     0.526065
      dz2     :     0.003015  d :     0.019985
      dxz     :     0.002785
      dyz     :     0.003552
      dx2y2   :     0.004980
      dxy     :     0.005653

  1 B s       :     3.562567  s :     3.562567
      pz      :     0.607696  p :     1.488485
      px      :     0.446322
      py      :     0.434467
      dz2     :     0.005413  d :     0.023213
      dxz     :     0.003631
      dyz     :     0.005430
      dx2y2   :     0.004302
      dxy     :     0.004437

  2 B s       :     3.737922  s :     3.737922
      pz      :     0.518099  p :     1.180439
      px      :     0.489797
      py      :     0.172543
      dz2     :     0.004157  d :     0.016478
      dxz     :     0.007235
      dyz     :     0.003016
      dx2y2   :     0.000735
      dxy     :     0.001335

  3 B s       :     3.294478  s :     3.294478
      pz      :     0.627549  p :     1.957808
      px      :     0.643806
      py      :     0.686453
      dz2     :     0.005614  d :     0.027848
      dxz     :     0.003910
      dyz     :     0.005671
      dx2y2   :     0.005928
      dxy     :     0.006724

  4 B s       :     3.903663  s :     3.903663
      pz      :     0.201382  p :     0.929248
      px      :     0.461316
      py      :     0.266550
      dz2     :     0.001289  d :     0.006216
      dxz     :     0.000700
      dyz     :     0.000990
      dx2y2   :     0.001013
      dxy     :     0.002224

  5 B s       :     3.555193  s :     3.555193
      pz      :     0.570236  p :     1.466838
      px      :     0.316742
      py      :     0.579860
      dz2     :     0.003465  d :     0.017362
      dxz     :     0.002082
      dyz     :     0.005172
      dx2y2   :     0.003738
      dxy     :     0.002906

  6 B s       :     3.598906  s :     3.598906
      pz      :     0.520273  p :     1.325348
      px      :     0.326260
      py      :     0.478815
      dz2     :     0.003584  d :     0.020383
      dxz     :     0.003645
      dyz     :     0.004054
      dx2y2   :     0.004581
      dxy     :     0.004519

  7 B s       :     3.427376  s :     3.427376
      pz      :     0.683930  p :     1.481886
      px      :     0.429061
      py      :     0.368895
      dz2     :     0.005149  d :     0.016391
      dxz     :     0.003708
      dyz     :     0.003043
      dx2y2   :     0.003074
      dxy     :     0.001416

  8 B s       :     3.280199  s :     3.280199
      pz      :     0.537267  p :     1.689729
      px      :     0.461694
      py      :     0.690768
      dz2     :     0.003921  d :     0.028543
      dxz     :     0.003660
      dyz     :     0.004500
      dx2y2   :     0.008896
      dxy     :     0.007566

  9 B s       :     3.426156  s :     3.426156
      pz      :     0.526076  p :     1.540556
      px      :     0.490338
      py      :     0.524142
      dz2     :     0.003214  d :     0.016088
      dxz     :     0.004214
      dyz     :     0.003444
      dx2y2   :     0.002624
      dxy     :     0.002591

 10 B s       :     3.507521  s :     3.507521
      pz      :     0.574003  p :     1.481550
      px      :     0.442539
      py      :     0.465008
      dz2     :     0.007113  d :     0.023008
      dxz     :     0.004312
      dyz     :     0.006098
      dx2y2   :     0.002031
      dxy     :     0.003454

 11 B s       :     3.558791  s :     3.558791
      pz      :     0.315667  p :     1.376633
      px      :     0.570950
      py      :     0.490016
      dz2     :     0.002509  d :     0.021036
      dxz     :     0.002641
      dyz     :     0.003540
      dx2y2   :     0.006349
      dxy     :     0.005997



                     *******************************
                     * LOEWDIN POPULATION ANALYSIS *
                     *******************************

----------------------
LOEWDIN ATOMIC CHARGES
----------------------
   0 B :    0.074725
   1 B :   -0.067456
   2 B :    0.004733
   3 B :   -0.088042
   4 B :    0.110888
   5 B :    0.038731
   6 B :    0.009173
   7 B :    0.014831
   8 B :   -0.073720
   9 B :    0.066209
  10 B :   -0.054466
  11 B :   -0.035606

-------------------------------
LOEWDIN REDUCED ORBITAL CHARGES
-------------------------------
  0 B s       :     3.200118  s :     3.200118
      pz      :     0.434949  p :     1.685540
      px      :     0.586268
      py      :     0.664322
      dz2     :     0.006596  d :     0.039617
      dxz     :     0.005376
      dyz     :     0.005482
      dx2y2   :     0.010374
      dxy     :     0.011788

  1 B s       :     3.109869  s :     3.109869
      pz      :     0.801031  p :     1.903782
      px      :     0.490780
      py      :     0.611971
      dz2     :     0.013581  d :     0.053805
      dxz     :     0.005818
      dyz     :     0.016251
      dx2y2   :     0.008642
      dxy     :     0.009514

  2 B s       :     3.403090  s :     3.403090
      pz      :     0.711809  p :     1.554785
      px      :     0.615777
      py      :     0.227200
      dz2     :     0.007985  d :     0.037391
      dxz     :     0.018561
      dyz     :     0.006262
      dx2y2   :     0.001697
      dxy     :     0.002885

  3 B s       :     2.953049  s :     2.953049
      pz      :     0.618976  p :     2.074499
      px      :     0.677001
      py      :     0.778522
      dz2     :     0.012593  d :     0.060494
      dxz     :     0.007078
      dyz     :     0.010662
      dx2y2   :     0.013191
      dxy     :     0.016970

  4 B s       :     3.781049  s :     3.781049
      pz      :     0.241525  p :     1.097851
      px      :     0.522428
      py      :     0.333899
      dz2     :     0.002044  d :     0.010212
      dxz     :     0.001235
      dyz     :     0.001603
      dx2y2   :     0.001400
      dxy     :     0.003931

  5 B s       :     3.186290  s :     3.186290
      pz      :     0.622983  p :     1.734969
      px      :     0.372399
      py      :     0.739586
      dz2     :     0.008092  d :     0.040011
      dxz     :     0.004906
      dyz     :     0.010104
      dx2y2   :     0.012522
      dxy     :     0.004386

  6 B s       :     3.177719  s :     3.177719
      pz      :     0.621425  p :     1.762426
      px      :     0.444013
      py      :     0.696989
      dz2     :     0.009673  d :     0.050682
      dxz     :     0.008834
      dyz     :     0.007645
      dx2y2   :     0.012005
      dxy     :     0.012525

  7 B s       :     3.156643  s :     3.156643
      pz      :     0.849259  p :     1.787779
      px      :     0.514976
      py      :     0.423544
      dz2     :     0.012550  d :     0.040747
      dxz     :     0.009532
      dyz     :     0.009692
      dx2y2   :     0.006330
      dxy     :     0.002643

  8 B s       :     2.951606  s :     2.951606
      pz      :     0.574967  p :     2.057475
      px      :     0.545675
      py      :     0.936833
      dz2     :     0.008396  d :     0.064639
      dxz     :     0.006981
      dyz     :     0.009792
      dx2y2   :     0.023753
      dxy     :     0.015717

  9 B s       :     3.131190  s :     3.131190
      pz      :     0.630565  p :     1.766239
      px      :     0.550909
      py      :     0.584765
      dz2     :     0.008134  d :     0.036361
      dxz     :     0.008136
      dyz     :     0.009897
      dx2y2   :     0.005597
      dxy     :     0.004598

 10 B s       :     3.098461  s :     3.098461
      pz      :     0.771292  p :     1.903117
      px      :     0.525108
      py      :     0.606716
      dz2     :     0.016235  d :     0.052888
      dxz     :     0.007489
      dyz     :     0.017660
      dx2y2   :     0.003845
      dxy     :     0.007659

 11 B s       :     3.198668  s :     3.198668
      pz      :     0.375491  p :     1.787386
      px      :     0.719746
      py      :     0.692148
      dz2     :     0.006170  d :     0.049553
      dxz     :     0.006404
      dyz     :     0.007489
      dx2y2   :     0.016510
      dxy     :     0.012979



                      *****************************
                      * MAYER POPULATION ANALYSIS *
                      *****************************

  NA   - Mulliken gross atomic population
  ZA   - Total nuclear charge
  QA   - Mulliken gross atomic charge
  VA   - Mayer's total valence
  BVA  - Mayer's bonded valence
  FA   - Mayer's free valence

  ATOM       NA         ZA         QA         VA         BVA        FA
  0 B      5.0121     5.0000    -0.0121     2.6901     2.6901    -0.0000
  1 B      5.0743     5.0000    -0.0743     2.7704     2.7704    -0.0000
  2 B      4.9348     5.0000     0.0652     2.1380     2.1380     0.0000
  3 B      5.2801     5.0000    -0.2801     3.2554     3.2554    -0.0000
  4 B      4.8391     5.0000     0.1609     1.5769     1.5769    -0.0000
  5 B      5.0394     5.0000    -0.0394     2.7603     2.7603     0.0000
  6 B      4.9446     5.0000     0.0554     2.6538     2.6538    -0.0000
  7 B      4.9257     5.0000     0.0743     2.8256     2.8256    -0.0000
  8 B      4.9985     5.0000     0.0015     3.0523     3.0523     0.0000
  9 B      4.9828     5.0000     0.0172     2.9694     2.9694    -0.0000
 10 B      5.0121     5.0000    -0.0121     2.6407     2.6407    -0.0000
 11 B      4.9565     5.0000     0.0435     2.6771     2.6771     0.0000

  Mayer bond orders larger than 0.100000
B(  0-B ,  1-B ) :   0.6144 B(  0-B ,  4-B ) :   0.1281 B(  0-B ,  8-B ) :   0.3333 
B(  0-B ,  9-B ) :   0.1271 B(  0-B , 10-B ) :   0.4321 B(  0-B , 11-B ) :   0.7215 
B(  1-B ,  3-B ) :   0.2235 B(  1-B ,  5-B ) :   0.2508 B(  1-B ,  6-B ) :   0.1976 
B(  1-B ,  8-B ) :   0.2923 B(  1-B , 10-B ) :   0.8432 B(  2-B ,  3-B ) :   0.4996 
B(  2-B ,  4-B ) :   0.2351 B(  2-B ,  7-B ) :   0.7844 B(  2-B ,  9-B ) :   0.1883 
B(  3-B ,  4-B ) :   0.1329 B(  3-B ,  5-B ) :   0.2803 B(  3-B ,  6-B ) :   0.8807 
B(  3-B ,  7-B ) :   0.4021 B(  3-B ,  8-B ) :   0.2563 B(  3-B ,  9-B ) :   0.1303 
B(  3-B , 10-B ) :   0.3073 B(  4-B , 10-B ) :   0.6548 B(  5-B ,  6-B ) :   0.7831 
B(  5-B ,  8-B ) :   0.9095 B(  5-B ,  9-B ) :   0.1110 B(  6-B ,  7-B ) :   0.1603 
B(  6-B ,  8-B ) :   0.1334 B(  6-B , 11-B ) :   0.1541 B(  7-B ,  9-B ) :   0.9577 
B(  7-B , 11-B ) :   0.1304 B(  8-B ,  9-B ) :   0.4149 B(  8-B , 11-B ) :   0.5723 
B(  9-B , 11-B ) :   0.7227 

-------
TIMINGS
-------

Total SCF time: 0 days 0 hours 0 min 21 sec 

Total time                  ....      21.885 sec
Sum of individual times     ....      21.197 sec  ( 96.9%)

SCF preparation             ....       0.549 sec  (  2.5%)
Fock matrix formation       ....      17.081 sec  ( 78.1%)
  Startup                   ....       0.071 sec  (  0.4% of F)
  Split-RI-J                ....       5.623 sec  ( 32.9% of F)
  XC integration            ....      10.447 sec  ( 61.2% of F)
    XC Preparation          ....       0.000 sec  (  0.0% of XC)
    Basis function eval.    ....       2.579 sec  ( 24.7% of XC)
    Density eval.           ....       1.691 sec  ( 16.2% of XC)
    XC-Functional eval.     ....       0.332 sec  (  3.2% of XC)
    XC-Potential eval.      ....       1.902 sec  ( 18.2% of XC)
Diagonalization             ....       0.000 sec  (  0.0%)
Density matrix formation    ....       0.843 sec  (  3.9%)
Total Energy calculation    ....       0.283 sec  (  1.3%)
Population analysis         ....       0.077 sec  (  0.4%)
Orbital Transformation      ....       0.058 sec  (  0.3%)
Orbital Orthonormalization  ....       0.000 sec  (  0.0%)
DIIS solution               ....       1.078 sec  (  4.9%)
SOSCF solution              ....       1.229 sec  (  5.6%)
Finished LeanSCF after  21.9 sec

Maximum memory used throughout the entire LEANSCF-calculation: 10.0 MB


-------------------------------------------------------------------------------
                          DFT DISPERSION CORRECTION                            
                                                                               
                              DFTD3 V3.1  Rev 1                                
                          USING Becke-Johnson damping                          
-------------------------------------------------------------------------------
The BP86 functional is recognized
Active option DFTDOPT                   ...         4   

molecular C6(AA) [au] = 10413.050731 


            DFT-D V3
 parameters
 s6 scaling factor         :     1.0000 
 a1 scaling factor         :     0.3946 
 s8 scaling factor         :     3.2822 
 a2 scaling factor         :     4.8516 
 ad hoc parameters k1-k3   :    16.0000     1.3333    -4.0000 

 Edisp/kcal,au: -42.478685924757  -0.067694087738 
 E6   /kcal   : -12.286146821 
 E8   /kcal   : -30.192539104 
 % E8         :  71.076914096 

-------------------------   ----------------
Dispersion correction           -0.067694088
-------------------------   ----------------


-------------------------   --------------------
FINAL SINGLE POINT ENERGY      -296.853762656510
-------------------------   --------------------



           ************************************************************
           *        Program running with 8 parallel MPI-processes     *
           *              working on a common directory               *
           ************************************************************
------------------------------------------------------------------------------
                         ORCA SCF GRADIENT CALCULATION
------------------------------------------------------------------------------

Nuc. rep. gradient        (SHARK) ... done (  0.0 sec)
HCore & Overlap gradient  (SHARK) ... done (  0.1 sec)
Split-RIJ-J gradient      (SHARK) ... done (  0.4 sec)
XC gradient                       ... done (  1.1 sec)
Dispersion correction             ... done (  0.1 sec)

-------------------
DISPERSION GRADIENT
-------------------

   1   B   :   -0.001143676    0.002648420   -0.000051487
   2   B   :    0.000745756   -0.003186974    0.000361996
   3   B   :    0.001149545    0.002037041    0.003891711
   4   B   :    0.001369090    0.000455700   -0.002029922
   5   B   :   -0.000894738   -0.001911359   -0.001579270
   6   B   :   -0.001373659    0.000176743   -0.001618726
   7   B   :    0.001176003    0.000153867    0.001744891
   8   B   :   -0.002041989   -0.002555036   -0.000122376
   9   B   :    0.001504627   -0.000976147    0.000096238
  10   B   :   -0.000014337    0.001412163   -0.001576510
  11   B   :   -0.000103779    0.000222106    0.000739579
  12   B   :   -0.000372841    0.001523475    0.000143877

Difference to translation invariance:
           :   -0.0000000000    0.0000000000   -0.0000000000

Difference to rotation invariance:
           :    0.0000000000    0.0000000000    0.0000000000

Norm of the Dispersion gradient    ...    0.0091341124
RMS gradient                       ...    0.0015223521
MAX gradient                       ...    0.0038917107

------------------
CARTESIAN GRADIENT
------------------

   1   B   :   -0.040826624   -0.050786964    0.017346335
   2   B   :   -0.046857661    0.036697969    0.017955013
   3   B   :   -0.005221417   -0.005234251   -0.056366667
   4   B   :   -0.012962810    0.014722134   -0.000668894
   5   B   :    0.019915427   -0.037708712   -0.010584673
   6   B   :    0.032678372    0.057249750    0.033962440
   7   B   :   -0.030381226    0.018895642   -0.048124250
   8   B   :    0.053801456    0.034570646   -0.017998125
   9   B   :   -0.003233590   -0.014038088    0.027419772
  10   B   :    0.056030939   -0.003806312    0.013421051
  11   B   :   -0.052506925    0.006176960   -0.023706081
  12   B   :    0.029564059   -0.056738776    0.047344078

Difference to translation invariance:
           :    0.0000000000    0.0000000000   -0.0000000000

Difference to rotation invariance:
           :    0.0001286543   -0.0002455291   -0.0001518539

Norm of the Cartesian gradient     ...    0.2036009431
RMS gradient                       ...    0.0339334905
MAX gradient                       ...    0.0572497503

-------
TIMINGS
-------

[...]
      dz2     :     0.009242  d :     0.045696
      dxz     :     0.006398
      dyz     :     0.015393
      dx2y2   :     0.007690
      dxy     :     0.006972

  7 B s       :     3.087230  s :     3.087230
      pz      :     0.574345  p :     1.903227
      px      :     0.665629
      py      :     0.663254
      dz2     :     0.017055  d :     0.057421
      dxz     :     0.012237
      dyz     :     0.009231
      dx2y2   :     0.008767
      dxy     :     0.010133

  8 B s       :     3.101184  s :     3.101184
      pz      :     0.481771  p :     1.739532
      px      :     0.579722
      py      :     0.678039
      dz2     :     0.009349  d :     0.052202
      dxz     :     0.008042
      dyz     :     0.012394
      dx2y2   :     0.012413
      dxy     :     0.010004

  9 B s       :     3.236220  s :     3.236220
      pz      :     0.807768  p :     1.850111
      px      :     0.594192
      py      :     0.448151
      dz2     :     0.008570  d :     0.045614
      dxz     :     0.013115
      dyz     :     0.006098
      dx2y2   :     0.009626
      dxy     :     0.008205

 10 B s       :     2.611597  s :     2.611597
      pz      :     0.832799  p :     1.960546
      px      :     0.518533
      py      :     0.609214
      dz2     :     0.013805  d :     0.061455
      dxz     :     0.012392
      dyz     :     0.010554
      dx2y2   :     0.014465
      dxy     :     0.010238

 11 B s       :     3.364380  s :     3.364380
      pz      :     0.570515  p :     1.982996
      px      :     0.718928
      py      :     0.693554
      dz2     :     0.011613  d :     0.046049
      dxz     :     0.011251
      dyz     :     0.008272
      dx2y2   :     0.006483
      dxy     :     0.008430



                     *******************************
                     * LOEWDIN POPULATION ANALYSIS *
                     *******************************

----------------------
LOEWDIN ATOMIC CHARGES
----------------------
   0 B :   -0.035879
   1 B :   -0.036138
   2 B :    0.016192
   3 B :    0.044995
   4 B :    0.019578
   5 B :   -0.024268
   6 B :   -0.016548
   7 B :    0.046478
   8 B :    0.064513
   9 B :   -0.017087
  10 B :   -0.036723
  11 B :   -0.025114

-------------------------------
LOEWDIN REDUCED ORBITAL CHARGES
-------------------------------
  0 B s       :     2.578839  s :     2.578839
      pz      :     0.767373  p :     2.252506
      px      :     0.757586
      py      :     0.727547
      dz2     :     0.038431  d :     0.204535
      dxz     :     0.053898
      dyz     :     0.036361
      dx2y2   :     0.038319
      dxy     :     0.037526

  1 B s       :     2.578162  s :     2.578162
      pz      :     0.748325  p :     2.252741
      px      :     0.678058
      py      :     0.826358
      dz2     :     0.052509  d :     0.205235
      dxz     :     0.023255
      dyz     :     0.052707
      dx2y2   :     0.038115
      dxy     :     0.038649

  2 B s       :     2.810571  s :     2.810571
      pz      :     0.582191  p :     2.059185
      px      :     0.702326
      py      :     0.774668
      dz2     :     0.014063  d :     0.114051
      dxz     :     0.019824
      dyz     :     0.020632
      dx2y2   :     0.030955
      dxy     :     0.028577

  3 B s       :     2.689920  s :     2.689920
      pz      :     0.595525  p :     2.116559
      px      :     0.690940
      py      :     0.830093
      dz2     :     0.035740  d :     0.148527
      dxz     :     0.020039
      dyz     :     0.030168
      dx2y2   :     0.031892
      dxy     :     0.030687

  4 B s       :     2.725561  s :     2.725561
      pz      :     0.716475  p :     2.109054
      px      :     0.768552
      py      :     0.624028
      dz2     :     0.032912  d :     0.145807
      dxz     :     0.031602
      dyz     :     0.029282
      dx2y2   :     0.032278
      dxy     :     0.019732

  5 B s       :     2.772207  s :     2.772207
      pz      :     0.794324  p :     2.140755
      px      :     0.586142
      py      :     0.760290
      dz2     :     0.026177  d :     0.111306
      dxz     :     0.012727
      dyz     :     0.032644
      dx2y2   :     0.020786
      dxy     :     0.018972

  6 B s       :     2.782595  s :     2.782595
      pz      :     0.929229  p :     2.123156
      px      :     0.470269
      py      :     0.723659
      dz2     :     0.024019  d :     0.110796
      dxz     :     0.015010
      dyz     :     0.039096
      dx2y2   :     0.019348
      dxy     :     0.013324

  7 B s       :     2.692009  s :     2.692009
      pz      :     0.748716  p :     2.113921
      px      :     0.748506
      py      :     0.616699
      dz2     :     0.044462  d :     0.147592
      dxz     :     0.034095
      dyz     :     0.025695
      dx2y2   :     0.023979
      dxy     :     0.019362

  8 B s       :     2.716666  s :     2.716666
      pz      :     0.556130  p :     2.081562
      px      :     0.684209
      py      :     0.841223
      dz2     :     0.020260  d :     0.137259
      dxz     :     0.022991
      dyz     :     0.032233
      dx2y2   :     0.033829
      dxy     :     0.027946

  9 B s       :     2.782561  s :     2.782561
      pz      :     0.918908  p :     2.123914
      px      :     0.671636
      py      :     0.533370
      dz2     :     0.023514  d :     0.110612
      dxz     :     0.031971
      dyz     :     0.016322
      dx2y2   :     0.021514
      dxy     :     0.017291

 10 B s       :     2.666701  s :     2.666701
      pz      :     0.861733  p :     2.219623
      px      :     0.649622
      py      :     0.708268
      dz2     :     0.038388  d :     0.150399
      dxz     :     0.031297
      dyz     :     0.030227
      dx2y2   :     0.033573
      dxy     :     0.016914

 11 B s       :     2.772145  s :     2.772145
      pz      :     0.583557  p :     2.141611
      px      :     0.806082
      py      :     0.751972
      dz2     :     0.025011  d :     0.111358
      dxz     :     0.027604
      dyz     :     0.020689
      dx2y2   :     0.016059
      dxy     :     0.021994



                      *****************************
                      * MAYER POPULATION ANALYSIS *
                      *****************************

  NA   - Mulliken gross atomic population
  ZA   - Total nuclear charge
  QA   - Mulliken gross atomic charge
  VA   - Mayer's total valence
  BVA  - Mayer's bonded valence
  FA   - Mayer's free valence

  ATOM       NA         ZA         QA         VA         BVA        FA
  0 B      4.6179     5.0000     0.3821     3.3575     3.3575    -0.0000
  1 B      4.6146     5.0000     0.3854     3.3502     3.3502     0.0000
  2 B      4.9132     5.0000     0.0868     3.4189     3.4189    -0.0000
  3 B      5.0487     5.0000    -0.0487     3.8969     3.8969     0.0000
  4 B      5.1769     5.0000    -0.1769     3.3498     3.3498    -0.0000
  5 B      5.3931     5.0000    -0.3931     3.4800     3.4800    -0.0000
  6 B      5.1358     5.0000    -0.1358     3.3647     3.3647     0.0000
  7 B      5.0479     5.0000    -0.0479     3.8873     3.8873    -0.0000
  8 B      4.8929     5.0000     0.1071     3.5605     3.5605    -0.0000
  9 B      5.1319     5.0000    -0.1319     3.3666     3.3666    -0.0000
 10 B      4.6336     5.0000     0.3664     3.0910     3.0910    -0.0000
 11 B      5.3934     5.0000    -0.3934     3.4822     3.4822     0.0000

  Mayer bond orders larger than 0.100000
B(  0-B ,  1-B ) :   0.7580 B(  0-B ,  3-B ) :   0.1226 B(  0-B ,  7-B ) :   0.4103 
B(  0-B ,  8-B ) :   0.4303 B(  0-B ,  9-B ) :   0.4385 B(  0-B , 10-B ) :   0.5301 
B(  0-B , 11-B ) :   0.4214 B(  1-B ,  3-B ) :   0.4184 B(  1-B ,  5-B ) :   0.4205 
B(  1-B ,  6-B ) :   0.4366 B(  1-B ,  7-B ) :   0.1216 B(  1-B ,  8-B ) :   0.4275 
B(  1-B , 10-B ) :   0.5236 B(  2-B ,  3-B ) :   0.8724 B(  2-B ,  4-B ) :   1.1293 
B(  2-B ,  7-B ) :   0.8768 B(  2-B , 10-B ) :   0.2389 B(  3-B ,  4-B ) :   0.4102 
B(  3-B ,  5-B ) :   0.1908 B(  3-B ,  6-B ) :   1.1853 B(  3-B ,  7-B ) :   0.2087 
B(  3-B , 10-B ) :   0.3367 B(  4-B ,  7-B ) :   0.4115 B(  4-B , 10-B ) :   1.0713 
B(  5-B ,  6-B ) :   1.4579 B(  5-B ,  8-B ) :   1.1647 B(  7-B ,  9-B ) :   1.1848 
B(  7-B , 10-B ) :   0.3341 B(  7-B , 11-B ) :   0.1894 B(  8-B , 11-B ) :   1.1660 
B(  9-B , 11-B ) :   1.4587 

-------
TIMINGS
-------

Total SCF time: 0 days 0 hours 0 min 5 sec 

Total time                  ....       5.566 sec
Sum of individual times     ....       4.889 sec  ( 87.8%)

SCF preparation             ....       0.774 sec  ( 13.9%)
Fock matrix formation       ....       3.072 sec  ( 55.2%)
  Startup                   ....       0.011 sec  (  0.4% of F)
  Split-RI-J                ....       1.140 sec  ( 37.1% of F)
  XC integration            ....       2.136 sec  ( 69.5% of F)
    XC Preparation          ....       0.000 sec  (  0.0% of XC)
    Basis function eval.    ....       0.505 sec  ( 23.6% of XC)
    Density eval.           ....       0.423 sec  ( 19.8% of XC)
    XC-Functional eval.     ....       0.064 sec  (  3.0% of XC)
    XC-Potential eval.      ....       0.398 sec  ( 18.6% of XC)
Diagonalization             ....       0.000 sec  (  0.0%)
Density matrix formation    ....       0.057 sec  (  1.0%)
Total Energy calculation    ....       0.059 sec  (  1.1%)
Population analysis         ....       0.596 sec  ( 10.7%)
Orbital Transformation      ....       0.102 sec  (  1.8%)
Orbital Orthonormalization  ....       0.000 sec  (  0.0%)
DIIS solution               ....       0.028 sec  (  0.5%)
SOSCF solution              ....       0.202 sec  (  3.6%)
Finished LeanSCF after   5.9 sec

Maximum memory used throughout the entire LEANSCF-calculation: 14.0 MB


-------------------------------------------------------------------------------
                          DFT DISPERSION CORRECTION                            
                                                                               
                              DFTD3 V3.1  Rev 1                                
                          USING Becke-Johnson damping                          
-------------------------------------------------------------------------------
The BP86 functional is recognized
Active option DFTDOPT                   ...         4   

molecular C6(AA) [au] = 4284.611536 


            DFT-D V3
 parameters
 s6 scaling factor         :     1.0000 
 a1 scaling factor         :     0.3946 
 s8 scaling factor         :     3.2822 
 a2 scaling factor         :     4.8516 
 ad hoc parameters k1-k3   :    16.0000     1.3333    -4.0000 

 Edisp/kcal,au: -22.088903482847  -0.035200904591 
 E6   /kcal   :  -6.319184433 
 E8   /kcal   : -15.769719049 
 % E8         :  71.392041084 

-------------------------   ----------------
Dispersion correction           -0.035200905
-------------------------   ----------------


-------------------------   --------------------
FINAL SINGLE POINT ENERGY      -297.650531618883
-------------------------   --------------------

                                *** OPTIMIZATION RUN DONE ***



           ************************************************************
           *        Program running with 8 parallel MPI-processes     *
           *              working on a common directory               *
           ************************************************************

------------------------------------------------------------------------------
                              ORCA PROPERTY CALCULATIONS
------------------------------------------------------------------------------

GBWName                                 ... random2_nn1.70.gbw
Number of atoms                         ...     12
Number of basis functions               ...    168
Max core memory                         ...   2500 MB

Electric properties:
Dipole moment                           ... YES
Quadrupole moment                       ...  NO
Static polarizability (Dipole/Dipole)   ...  NO
Static polarizability (Dipole/Quad.)    ...  NO
Static polarizability (Quad./Quad.)     ...  NO
Static polarizability (Velocity)        ...  NO
Static hyperpolarizability              ...  NO

Atomic electric properties:
Dipole moment                           ...  NO
Quadrupole moment                       ...  NO
Static polarizability                   ...  NO

Choice of electric origin               ... Center of mass
Position of electric origin             ...    -0.000000     0.000000    -0.000000

General magnetic properties:
Magnetizability                         ...  NO

EPR properties:
g-Tensor (aka g-matrix)                 ...  NO
Zero-Field splitting spin-orbit         ...  NO
Zero-field splitting spin-spin          ...  NO
Hyperfine couplings                     ...  NO (   0 nuclei)
Quadrupole couplings                    ...  NO (   0 nuclei)
Contact density                         ...  NO (   0 nuclei)

NMR properties:
Chemical shifts                         ...  NO (   0 nuclei)
Spin-rotation constants                 ...  NO (   0 nuclei)
Spin-spin couplings                     ...  NO (   0 nuclei,    0 pairs)

Choice of magnetic origin               ... GIAO
Position of magnetic origin             ...     0.000000     0.000000     0.000000

Properties with geometric perturbations:
SCF Hessian                             ...  NO
IR spectrum                             ...  NO
VCD spectrum                            ...  NO
X-ray spectroscopy properties:
SCF XES/XAS/RIXS spectra                ...  NO

SCF SOC stabilization energy            ...  NO
Diagonal Born-Oppenheimer correction    ...  NO

-------------
DIPOLE MOMENT
-------------

Method             : SCF
Type of density    : Electron Density
Multiplicity       :   1
Irrep              :   0
Energy             :  -297.6153307142917015 Eh
Basis              : AO
                                X                 Y                 Z
Electronic contribution:     -0.698696862      -0.620195829      -0.304222401
Nuclear contribution   :     -0.000000000       0.000000000      -0.000000000
                        -----------------------------------------
Total Dipole Moment    :     -0.698696862      -0.620195829      -0.304222401
                        -----------------------------------------
Magnitude (a.u.)       :      0.982533175
Magnitude (Debye)      :      2.497400860



--------------------
Rotational spectrum 
--------------------
 
Rotational constants in cm-1:             0.065980             0.060290             0.037833 
Rotational constants in MHz :          1978.033029          1807.459253          1134.198281 

Dipole components along the rotational axes: 
x,y,z [a.u.] :    -0.453758     0.004260     0.871468 
x,y,z [Debye]:    -1.153361     0.010827     2.215096 

 

Dipole moment calculation done in   0.1 sec 

Maximum memory used throughout the entire PROP-calculation: 10.9 MB

--------------------------------
SUGGESTED CITATIONS FOR THIS RUN
--------------------------------

Below you find a list of papers that are relevant to this ORCA run
We neither can nor want to force you to cite these papers, but we appreciate if you do
You receive ORCA, which is the product of decades of hard work by many enthusiastic individuals, for free
The only thing we kindly ask in return is that you cite our papers,
We deeply appreciate it, if you show your appreciation for ORCA by not just citing the generic ORCA reference.

Please note that relegating all ORCA citations to the supporting information does *not* help us.
SI sections are not indexed - citations you put there will not count into any citation statistics
But we need these citations in order to attract the funding resources that allow us to do what we are doing

Therefore, if you are a happy ORCA user, please consider citing a few of the papers listed below in the main body of your paper

In addition to the list printed below, the program has created the file random2_nn1.70.bibtex that contains the list in bibtex format
You can import this file easily into all common literature databanks and citation aid programs

It goes without saying that in many instances, there are alternative algorithms to achieve similar
results as the ones you have gotten from ORCA. It is, of course, also the case that in some instances
ORCA just re-implements algorithms worked out by others. We are fully aware of that and we are also
fully appreciative of our colleagues work. Hence this citation list should not be read as indicating
that the listed papers, which are focused on our own work, are the only ones worth citing. It simply
meant to make it easier for users to cite ORCA specific papers. It is not a substitute for doing your
own literature research and citing the relevant literature in a scientifically appropriate manner.

List of essential papers. We consider these as the minimum necessary citations

  1. Neese, F.
     Software update: the ORCA program system, version 6.0
     WIRES Comput. Molec. Sci. 2025 15(1), e70019
     doi.org/10.1002/wcms.70019

List of papers to cite with high priority. The work reported in these papers was absolutely
necessary for this run to complete.
Our perspective: the developers of density functionals and basis sets usually get cited in chemistry papers
Good! But without the algorithms to do something with them, the functionals or basis sets would not do anything.
Hence, in our opinion, the algorithm design and method developments papers are equally worthy of getting cited

  1. Neese, F.
     An improvement of the resolution of the identity approximation for the formation of the Coulomb matrix
     J. Comp. Chem. 2003 24(14), 1740-1747
     doi.org/10.1002/jcc.10318
  2. Grimme, S.; Antony, J.; Ehrlich, S.; Krieg, H.
     A consistent and accurate ab initio parametrization of density functional dispersion correction (DFT-D) for the 94 elements H-Pu
     J. Chem. Phys. 2010 132 , 154104
     doi.org/10.1063/1.3382344
  3. Grimme, S.; Ehrlich, S.; Goerigk, L.
     Effect of the damping function in dispersion corrected density functional theory
     J. Comput. Chem. 2011 32(7), 1456-1465
     doi.org/10.1002/jcc.21759
  4. Neese, F.
     The SHARK Integral Generation and Digestion System
     J. Comp. Chem. 2022 44(3), 381
     doi.org/10.1002/jcc.26942

List of suggested additional citations. These are papers that are important in the 'surrounding' of 
of this run, or papers that preceded the highly important papers. If you like your results we are grateful for a citation.

  1. Neese, F.
     The ORCA program system
     WIRES Comput. Molec. Sci. 2012 2(1), 73-78
     doi.org/10.1002/wcms.81
  2. Neese, F.
     Software update: the ORCA program system, version 4.0
     WIRES Comput. Molec. Sci. 2018 8(1), 1-6
     doi.org/10.1002/wcms.1327
  3. Neese, F.; Wennmohs, F.; Becker, U.; Riplinger, C.
     The ORCA quantum chemistry program package
     J. Chem. Phys. 2020 152(22), 224108
     doi.org/10.1063/5.0004608
  4. Neese, F.
     Software update: The ORCA program system—Version 5.0
     WIRES Comput. Molec. Sci. 2022 12(1), e1606
     doi.org/10.1002/wcms.1606

List of optional additional citations

  1. Neese, F.
     Approximate second-order SCF convergence for spin unrestricted wavefunctions
     Chem. Phys. Lett. 2000 325(1-3), 93-98
     doi.org/10.1016/s0009-2614(00)00662-x

Timings for individual modules:

Sum of individual times          ...     1058.252 sec (=  17.638 min)
Startup calculation              ...      133.359 sec (=   2.223 min)  12.6 %
SCF iterations                   ...      737.350 sec (=  12.289 min)  69.7 %
Property calculations            ...        1.561 sec (=   0.026 min)   0.1 %
SCF Gradient evaluation          ...      183.962 sec (=   3.066 min)  17.4 %
Geometry relaxation              ...        2.021 sec (=   0.034 min)   0.2 %
                             ****ORCA TERMINATED NORMALLY****
TOTAL RUN TIME: 0 days 0 hours 18 minutes 43 seconds 99 msec
