
                                 *****************
                                 * O   R   C   A *
                                 *****************

                                            #,                                       
                                            ###                                      
                                            ####                                     
                                            #####                                    
                                            ######                                   
                                           ########,                                 
                                     ,,################,,,,,                         
                               ,,#################################,,                 
                          ,,##########################################,,             
                       ,#########################################, ''#####,          
                    ,#############################################,,   '####,        
                  ,##################################################,,,,####,       
                ,###########''''           ''''###############################       
              ,#####''   ,,,,##########,,,,          '''####'''          '####       
            ,##' ,,,,###########################,,,                        '##       
           ' ,,###''''                  '''############,,,                           
         ,,##''                                '''############,,,,        ,,,,,,###''
      ,#''                                            '''#######################'''  
     '                                                          ''''####''''         
             ,#######,   #######,   ,#######,      ##                                
            ,#'     '#,  ##    ##  ,#'     '#,    #''#        ,####,    ,#,          
            ##       ##  ##   ,#'  ##            #'  '#       #'       ,# #          
            ##       ##  #######   ##           ,######,      #####,      #          
            '#,     ,#'  ##    ##  '#,     ,#' ,#      #,     #,   #      #          
             '#######'   ##     ##  '#######'  #'      '#     '####' #    #          



                #########################################################
                #                        -***-                          #
                #          Department of theory and spectroscopy        #
                #                                                       #
                #                      Frank Neese                      #
                #                                                       #
                #     Directorship, Architecture, Infrastructure        #
                #                    SHARK, DRIVERS                     #
                #        Core code/Algorithms in most modules           #
                #                                                       #
                #        Max Planck Institute fuer Kohlenforschung      #
                #                Kaiser Wilhelm Platz 1                 #
                #                 D-45470 Muelheim/Ruhr                 #
                #                      Germany                          #
                #                                                       #
                #                  All rights reserved                  #
                #                        -***-                          #
                #########################################################


                         Program Version 6.1.1  -  RELEASE   -
                                (GIT: $487d211c$)
                          ($2025-11-21 10:33:24 +0100$)
                                                                         
                                  - NO-DMRG VERSION -                    
                                                                         


 With contributions from (in alphabetic order):
[Max-Planck-Institut fuer Kohlenforschung]                               
  Daniel Aravena         : Magnetic Suceptibility                        
  Michael Atanasov       : Ab Initio Ligand Field Theory (pilot matlab implementation)
  Alexander A. Auer      : GIAO ZORA, VPT2 properties, NMR spectrum      
  Ute Becker             : All parallelization in ORCA, NUMFREQ, NUMCALC 
  Giovanni Bistoni       : ED, misc. LED, open-shell LED, HFLD           
  Dmytro Bykov           : pre 5.0 version of the SCF Hessian            
  Marcos Casanova-Páez   : Triplet and SCS-CIS(D). UHF-(DLPNO)-IP/EA/STEOM-CCSD. UHF-CVS-IP/STEOM-CCSD   
  Vijay G. Chilkuri      : MRCI spin determinant printing, contributions to CSF-ICE 
  Pauline Colinet        : FMM embedding                                 
  Dipayan Datta          : RHF DLPNO-CCSD density                        
  Achintya Kumar Dutta   : EOM-CC, STEOM-CC                              
  Nicolas Foglia         : Exact transition moments, OPA infrastructure, MCD improvements    
  Dmitry Ganyushin       : Spin-Orbit,Spin-Spin,Magnetic field MRCI      
  Miquel Garcia-Rates    : C-PCM and meta-GGA Hessian, CCSD/C-PCM, Gaussian charge scheme 
  Tiago L. C. Gouveia    : GS-ROHF, GS-ROCIS                             
  Yang Guo               : DLPNO-NEVPT2, F12-NEVPT2, CIM, IAO-localization        
  Andreas Hansen         : Spin unrestricted coupled pair/coupled cluster methods 
  Ingolf Harden          : AUTO-CI MPn and infrastructure                
  Benjamin Helmich-Paris : MC-RPA, TRAH-(SCF,CASSCF), AVAS, COSX integrals, SCF dyn. polar., MC-PDFT, srDFT 
  Lee Huntington         : MR-EOM, pCC                                   
  Robert Izsak           : Overlap fitted RIJCOSX, COSX-SCS-MP3, EOM     
  Riya Kayal             : Wick's Theorem for AUTO-CI, AUTO-CI UHF-CCSDT 
  Emily Kempfer          : AUTO-CI RHF CISDT and CCSDT, approximate NEVPT4
  Christian Kollmar      : KDIIS, OOCD, Brueckner-CCSD(T), CCSD density, CASPT2, CASPT2-K, improved NEVPT2 
  Axel Koslowski         : Symmetry handling                             
  Simone Kossmann        : meta-GGA functionals, TD-DFT gradient, OOMP2, (MP2 Hessian; deprecated post 5.0) 
  Lucas Lang             : DCDCAS, Hyperfine gauge corrections, ICE-SOC+SSC
  Marvin Lechner         : AUTO-CI (C++ implementation), FIC-MRCC        
  Spencer Leger          : CASSCF response                               
  Dagmar Lenk            : GEPOL surface, SMD, ORCA-2-JSON               
  Dimitrios Liakos       : Extrapolation schemes; Compound Job, Property file
  Dimitrios Manganas     : Further ROCIS development; embedding schemes. LFT, Crystal Embedding 
  Dimitrios Pantazis     : SARC Basis sets                               
  Anastasios Papadopoulos: AUTO-CI, single reference methods and gradients 
  Taras Petrenko         : pre 6.0 DFT Hessian and TD-DFT gradient,  ECA, NRVS 
  Petra Pikulova         : Analytic Raman intensities                    
  Peter Pinski           : DLPNO-MP2, DLPNO-MP2 Gradient                 
  Shashank Vittal Rao    : ES-AILFT, MagRelax                            
  Christoph Reimann      : Effective Core Potentials                     
  Marius Retegan         : Local ZFS, SOC                                
  Christoph Riplinger    : Optimizer, TS searches, QM/MM, DLPNO-CCSD(T), (RO)-DLPNO pert. Triples 
  Michael Roemelt        : Original ROCIS implementation, recursive CI coupling coefficients
  Masaaki Saitow         : Open-shell DLPNO-CCSD energy and density      
  Barbara Sandhoefer     : DKH picture change effects                    
  Yorick L. A. Schmerwitz: GMF and freeze-and-release deltaSCF, NEB S-IDPP initial path                    
  Kantharuban Sivalingam : CASSCF convergence/infrastructure, NEVPT2, NEVPT3, NEVPT4(SD), FIC-MRCI and CEPA variants
  Bernardo de Souza      : ESD, SOC TD-DFT                               
  Georgi L. Stoychev     : AutoAux, RI-MP2 NMR, DLPNO-MP2 response, X2C  
  Van Anh Tran           : RI-MP2 g-tensors                              
  Willem Van den Heuvel  : Paramagnetic NMR                              
  Zikuan Wang            : NOTCH, Electric field optimization            
  Frank Wennmohs         : Technical directorship and infrastructure     
  Hang Xu                : AUTO-CI-Response properties                   
                                                                         
[FACCTs GmbH]                                                            
  Markus Bursch, Nicolas Foglia, Miquel Garcia-Rates, Ingolf Harden, Hagen Neugebauer, Anastasios Papadopoulos, 
  Christoph Riplinger, Bernardo de Souza, Georgi L. Stoychev                                                    
                                                                 
  APM, various basis sets, CI-OPT, improved COSX, DLPNO-Multilevel,           
  DOCKER, DRACO, updates on ESD, Fragmentator, GOAT, IRC, LR-CPCM, L-BFGS, MBIS, meta-GGA TD-DFT gradient, ML-optimized integration grids, 
  MM, NACMEs, nearIR, NEB, NEB-TS, NL-DFT gradient (VV10), 2- and 3-layer-ONIOM, interface openCOSMO-RS, QMMM,   
  Crystal-QMMM, RESP, rigid body optimization, SF, symmetry and pop. for TD-DFT, various functionals, SOLVATOR                                   
                                                                         
[Other institutions]                                                     
  V. Asgeirsson          : NEB                                           
  Christoph Bannwarth    : sTDA-DFT, sTD-DFT, PBEh-3c, B97-3c, D3        
  Giovanni Bistoni       : ETS/NOCV, ADLD/ADEX, COVALED                  
  Martin Brehm           : Molecular dynamics                            
  Ronald Cardenas        : ETS/NOCV                                      
  Martina Colucci        : COVALED                                       
  Sebastian Ehlert       : rSCAN, r2SCAN, r2SCAN-3c, D4, dhf basis sets  
  Marvin Friede          : D4 for Fr, Ra, Ac-Lr                          
  Lars Goerigk           : TD-DFT with DH, B97 family of functionals     
  Stefan Grimme          : VdW corrections, initial TS optimization, DFT functionals, gCP, sTDA/sTD-DF 
  Waldemar Hujo          : DFT-NL                                        
  H. Jonsson             : NEB                                           
  Holger Kruse           : gCP                                           
  Marcel Mueller         : wB97X-3c, vDZP basis set                      
  Hagen Neugebauer       : wr2SCAN, Native XTB                           
  Gianluca Regni         : ADLD/ADEX                                     
  Tobias Risthaus        : pre 6.0 range-separated hybrid DFT and stability analysis
  Lukas Wittmann         : regularized MP2, r2SCAN double-hybrids, wr2SCAN        
                                                                         
We gratefully acknowledge several colleagues who have allowed us to      
interface, adapt or use parts of their codes:                            
  Ed Valeev, F. Pavosevic, A. Kumar             : LibInt (2-el integral package), F12 methods 
  Garnet Chan, S. Sharma, J. Yang, R. Olivares  : DMRG                   
  Ulf Ekstrom                                   : XCFun DFT Library      
  Mihaly Kallay                                 : mrcc  (arbitrary order and MRCC methods)
  Frank Weinhold                                : gennbo (NPA and NBO analysis)           
  Simon Mueller                                 : openCOSMO-RS                            
  Christopher J. Cramer and Donald G. Truhlar   : smd solvation model                     
  S Lehtola, MJT Oliveira, MAL Marques          : LibXC Library                           
  Liviu Ungur et al                             : ANISO software                          


 Your calculation uses the libint2 library for the computation of 2-el integrals
 For citations please refer to: http://libint.valeyev.net

 Your ORCA version has been built with support for libXC version: 7.0.0
 For citations please refer to: https://libxc.gitlab.io

 This ORCA versions uses:
   CBLAS   interface :  Fast vector & matrix operations
   LAPACKE interface :  Fast linear algebra routines
   SCALAPACK package :  Parallel linear algebra routines
   Shared memory     :  Shared parallel matrices
   BLAS/LAPACK       :  OpenBLAS 0.3.29  USE64BITINT DYNAMIC_ARCH NO_AFFINITY Zen SINGLE_THREADED
        Core in use  :  Zen
   Copyright (c) 2011-2014, The OpenBLAS Project


  ***********************************
  * Starting time: Thu Apr 23 09:52:11 2026
  * Host name:     vmi3233575
  * Process ID:    1108822
  * Working dir.:  /root/b12_scan/jobs/cuboctahedron_nn2.00
  ***********************************

NOTE: MaxCore=2500 MB was set to SCF,MP2,MDCI,CIPSI,MRCI,RASCI and CIS
      => If you want to overwrite this, your respective input block should be placed after the MaxCore statement
Your calculation utilizes the atom-pairwise dispersion correction
with the Becke-Johnson damping scheme (D3BJ)


================================================================================

----- Orbital basis set information -----
Your calculation utilizes the basis: def2-SVP
   F. Weigend and R. Ahlrichs, Phys. Chem. Chem. Phys. 7, 3297 (2005).

----- AuxJ basis set information -----
Your calculation utilizes the auxiliary basis: def2/J
   H-Rn: F. Weigend, Phys. Chem. Chem. Phys. 8, 1057 (2006).
   Fr-Lr: K. Eichkorn, F. Weigend, O. Treutler, R. Ahlrichs; Theor. Chem. Acc. 97, 119 (1997).

================================================================================
                                        WARNINGS
                       Please study these warnings very carefully!
================================================================================


WARNING: Geometry Optimization
  ===> : Switching off AutoStart
         For restart on a previous wavefunction, please use MOREAD

================================================================================
                                       INPUT FILE
================================================================================
NAME = cuboctahedron_nn2.00.inp
|  1> ! BP86 def2-SVP def2/J RI Opt TightSCF D3BJ
|  2> ! SlowConv
|  3> 
|  4> %pal nprocs 8 end
|  5> %maxcore 2500
|  6> 
|  7> %geom
|  8>   MaxIter 300
|  9> end
| 10> 
| 11> * xyz 0 1
| 12> B      0.00000000     -1.41421356     -1.41421356
| 13> B     -1.41421356      0.00000000     -1.41421356
| 14> B     -1.41421356     -1.41421356      0.00000000
| 15> B      0.00000000     -1.41421356      1.41421356
| 16> B     -1.41421356      0.00000000      1.41421356
| 17> B     -1.41421356      1.41421356      0.00000000
| 18> B      0.00000000      1.41421356     -1.41421356
| 19> B      1.41421356      0.00000000     -1.41421356
| 20> B      1.41421356     -1.41421356      0.00000000
| 21> B      0.00000000      1.41421356      1.41421356
| 22> B      1.41421356      0.00000000      1.41421356
| 23> B      1.41421356      1.41421356      0.00000000
| 24> *
| 25> 
| 26>                          ****END OF INPUT****
================================================================================

                       *****************************
                       * Geometry Optimization Run *
                       *****************************

Geometry optimization settings:
Update method            Update   .... BFGS
Choice of coordinates    CoordSys .... (2022) Redundant Internals
Initial Hessian          InHess   .... Almloef's Model
Max. no of cycles        MaxIter  .... 300

Convergence Tolerances:
Energy Change            TolE     ....  5.0000e-06 Eh
Max. Gradient            TolMAXG  ....  3.0000e-04 Eh/bohr
RMS Gradient             TolRMSG  ....  1.0000e-04 Eh/bohr
Max. Displacement        TolMAXD  ....  4.0000e-03 bohr
RMS Displacement         TolRMSD  ....  2.0000e-03 bohr
Strict Convergence                .... False

------------------------------------------------------------------------------
                        ORCA OPTIMIZATION COORDINATE SETUP
------------------------------------------------------------------------------

The optimization will be done in redundant internal coordinates (2022)
Making redundant internal coordinates   ...  (2022 redundants) done
Evaluating the initial hessian          ...  (Almloef) done
Evaluating the coordinates              ...  done
Calculating the B-matrix                .... done
Calculating the G-matrix                .... done
The number of degrees of freedom        ....  240

    -----------------------------------------------------------------
                    Redundant Internal Coordinates


    -----------------------------------------------------------------
         Definition                    Initial Value    Approx d2E/dq
    -----------------------------------------------------------------
      1. B(B   1,B   0)                  2.0000         0.089157   
      2. B(B   2,B   1)                  2.0000         0.089157   
      3. B(B   2,B   0)                  2.0000         0.089157   
      4. B(B   3,B   2)                  2.0000         0.089157   
      5. B(B   4,B   2)                  2.0000         0.089157   
      6. B(B   4,B   3)                  2.0000         0.089157   
      7. B(B   5,B   1)                  2.0000         0.089157   
      8. B(B   5,B   4)                  2.0000         0.089157   
      9. B(B   6,B   5)                  2.0000         0.089157   
     10. B(B   6,B   1)                  2.0000         0.089157   
     11. B(B   7,B   6)                  2.0000         0.089157   
     12. B(B   7,B   0)                  2.0000         0.089157   
     13. B(B   8,B   7)                  2.0000         0.089157   
     14. B(B   8,B   3)                  2.0000         0.089157   
     15. B(B   8,B   0)                  2.0000         0.089157   
     16. B(B   9,B   5)                  2.0000         0.089157   
     17. B(B   9,B   4)                  2.0000         0.089157   
     18. B(B  10,B   9)                  2.0000         0.089157   
     19. B(B  10,B   8)                  2.0000         0.089157   
     20. B(B  10,B   3)                  2.0000         0.089157   
     21. B(B  11,B  10)                  2.0000         0.089157   
     22. B(B  11,B   9)                  2.0000         0.089157   
     23. B(B  11,B   7)                  2.0000         0.089157   
     24. B(B  11,B   6)                  2.0000         0.089157   
     25. A(B   7,B   0,B   8)           60.0000         0.238665   
     26. A(B   1,B   0,B   7)           90.0000         0.238665   
     27. A(B   2,B   0,B   7)          120.0000         0.238665   
     28. A(B   2,B   0,B   8)           90.0000         0.238665   
     29. A(B   1,B   0,B   2)           60.0000         0.238665   
     30. A(B   1,B   0,B   8)          120.0000         0.238665   
     31. A(B   2,B   1,B   5)           90.0000         0.238665   
     32. A(B   0,B   1,B   2)           60.0000         0.238665   
     33. A(B   2,B   1,B   6)          120.0000         0.238665   
     34. A(B   0,B   1,B   5)          120.0000         0.238665   
     35. A(B   5,B   1,B   6)           60.0000         0.238665   
     36. A(B   0,B   1,B   6)           90.0000         0.238665   
     37. A(B   1,B   2,B   3)          120.0000         0.238665   
     38. A(B   0,B   2,B   4)          120.0000         0.238665   
     39. A(B   0,B   2,B   3)           90.0000         0.238665   
     40. A(B   3,B   2,B   4)           60.0000         0.238665   
     41. A(B   0,B   2,B   1)           60.0000         0.238665   
     42. A(B   1,B   2,B   4)           90.0000         0.238665   
     43. A(B   4,B   3,B   8)          120.0000         0.238665   
     44. A(B   4,B   3,B  10)           90.0000         0.238665   
     45. A(B   8,B   3,B  10)           60.0000         0.238665   
     46. A(B   2,B   3,B  10)          120.0000         0.238665   
     47. A(B   2,B   3,B   8)           90.0000         0.238665   
     48. A(B   2,B   3,B   4)           60.0000         0.238665   
     49. A(B   5,B   4,B   9)           60.0000         0.238665   
     50. A(B   2,B   4,B   5)           90.0000         0.238665   
     51. A(B   3,B   4,B   5)          120.0000         0.238665   
     52. A(B   3,B   4,B   9)           90.0000         0.238665   
     53. A(B   2,B   4,B   9)          120.0000         0.238665   
     54. A(B   2,B   4,B   3)           60.0000         0.238665   
     55. A(B   6,B   5,B   9)           90.0000         0.238665   
     56. A(B   4,B   5,B   9)           60.0000         0.238665   
     57. A(B   1,B   5,B   9)          120.0000         0.238665   
     58. A(B   4,B   5,B   6)          120.0000         0.238665   
     59. A(B   1,B   5,B   6)           60.0000         0.238665   
     60. A(B   1,B   5,B   4)           90.0000         0.238665   
     61. A(B   7,B   6,B  11)           60.0000         0.238665   
     62. A(B   5,B   6,B  11)           90.0000         0.238665   
     63. A(B   1,B   6,B  11)          120.0000         0.238665   
     64. A(B   5,B   6,B   7)          120.0000         0.238665   
     65. A(B   1,B   6,B   7)           90.0000         0.238665   
     66. A(B   1,B   6,B   5)           60.0000         0.238665   
     67. A(B   8,B   7,B  11)           90.0000         0.238665   
     68. A(B   6,B   7,B  11)           60.0000         0.238665   
     69. A(B   0,B   7,B  11)          120.0000         0.238665   
     70. A(B   0,B   7,B   6)           90.0000         0.238665   
     71. A(B   6,B   7,B   8)          120.0000         0.238665   
     72. A(B   0,B   7,B   8)           60.0000         0.238665   
     73. A(B   7,B   8,B  10)           90.0000         0.238665   
     74. A(B   3,B   8,B  10)           60.0000         0.238665   
     75. A(B   0,B   8,B  10)          120.0000         0.238665   
     76. A(B   3,B   8,B   7)          120.0000         0.238665   
     77. A(B   0,B   8,B   7)           60.0000         0.238665   
     78. A(B   0,B   8,B   3)           90.0000         0.238665   
     79. A(B   5,B   9,B  11)           90.0000         0.238665   
     80. A(B   4,B   9,B  11)          120.0000         0.238665   
     81. A(B   5,B   9,B  10)          120.0000         0.238665   
     82. A(B   4,B   9,B  10)           90.0000         0.238665   
     83. A(B   4,B   9,B   5)           60.0000         0.238665   
     84. A(B  10,B   9,B  11)           60.0000         0.238665   
     85. A(B   8,B  10,B   9)          120.0000         0.238665   
     86. A(B   3,B  10,B   9)           90.0000         0.238665   
     87. A(B   3,B  10,B   8)           60.0000         0.238665   
     88. A(B   9,B  10,B  11)           60.0000         0.238665   
     89. A(B   8,B  10,B  11)           90.0000         0.238665   
     90. A(B   3,B  10,B  11)          120.0000         0.238665   
     91. A(B   6,B  11,B   7)           60.0000         0.238665   
     92. A(B   9,B  11,B  10)           60.0000         0.238665   
     93. A(B   7,B  11,B  10)           90.0000         0.238665   
     94. A(B   6,B  11,B  10)          120.0000         0.238665   
     95. A(B   7,B  11,B   9)          120.0000         0.238665   
     96. A(B   6,B  11,B   9)           90.0000         0.238665   
     97. D(B   6,B   1,B   0,B   2)    125.2644         0.010000   
     98. D(B   5,B   1,B   0,B   7)    -54.7356         0.010000   
     99. D(B   2,B   1,B   0,B   8)    -70.5288         0.010000   
    100. D(B   5,B   1,B   0,B   2)     70.5288         0.010000   
    101. D(B   5,B   1,B   0,B   8)      0.0000         0.010000   
    102. D(B   2,B   1,B   0,B   7)   -125.2644         0.010000   
    103. D(B   1,B   2,B   0,B   7)     70.5288         0.010000   
    104. D(B   3,B   2,B   1,B   0)     70.5288         0.010000   
    105. D(B   3,B   2,B   1,B   5)    -54.7356         0.010000   
    106. D(B   3,B   2,B   0,B   7)    -54.7356         0.010000   
    107. D(B   1,B   2,B   0,B   8)    125.2644         0.010000   
    108. D(B   0,B   2,B   1,B   6)    -70.5288         0.010000   
    109. D(B   3,B   2,B   0,B   1)   -125.2644         0.010000   
    110. D(B   4,B   2,B   0,B   1)    -70.5288         0.010000   
    111. D(B   4,B   2,B   1,B   0)    125.2644         0.010000   
    112. D(B   3,B   2,B   1,B   6)      0.0000         0.010000   
    113. D(B   3,B   2,B   0,B   8)      0.0000         0.010000   
    114. D(B   0,B   2,B   1,B   5)   -125.2644         0.010000   
    115. D(B  10,B   3,B   2,B   0)     54.7356         0.010000   
    116. D(B   8,B   3,B   2,B   4)   -125.2644         0.010000   
    117. D(B   4,B   3,B   2,B   0)    125.2644         0.010000   
    118. D(B   4,B   3,B   2,B   1)     70.5288         0.010000   
    119. D(B   8,B   3,B   2,B   1)    -54.7356         0.010000   
    120. D(B   8,B   3,B   2,B   0)      0.0000         0.010000   
    121. D(B   2,B   4,B   3,B   8)     70.5288         0.010000   
    122. D(B   3,B   4,B   2,B   1)   -125.2644         0.010000   
    123. D(B   5,B   4,B   2,B   3)    125.2644         0.010000   
    124. D(B   9,B   4,B   2,B   0)      0.0000         0.010000   
    125. D(B   5,B   4,B   2,B   0)     54.7356         0.010000   
    126. D(B   3,B   4,B   2,B   0)    -70.5288         0.010000   
    127. D(B   5,B   4,B   2,B   1)      0.0000         0.010000   
    128. D(B   5,B   4,B   3,B   8)      0.0000         0.010000   
    129. D(B   5,B   4,B   3,B   2)    -70.5288         0.010000   
    130. D(B   5,B   4,B   3,B  10)     54.7356         0.010000   
    131. D(B   2,B   4,B   3,B  10)    125.2644         0.010000   
    132. D(B   9,B   4,B   3,B   2)   -125.2644         0.010000   
    133. D(B   6,B   5,B   4,B   9)     70.5288         0.010000   
    134. D(B   6,B   5,B   4,B   2)    -54.7356         0.010000   
    135. D(B   1,B   5,B   4,B   3)     54.7356         0.010000   
    136. D(B   6,B   5,B   1,B   2)    125.2644         0.010000   
    137. D(B   9,B   5,B   1,B   0)      0.0000         0.010000   
    138. D(B   6,B   5,B   1,B   0)     70.5288         0.010000   
    139. D(B   4,B   5,B   1,B   6)   -125.2644         0.010000   
    140. D(B   4,B   5,B   1,B   2)      0.0000         0.010000   
    141. D(B   1,B   5,B   4,B   9)    125.2644         0.010000   
    142. D(B   6,B   5,B   4,B   3)      0.0000         0.010000   
    143. D(B   4,B   5,B   1,B   0)    -54.7356         0.010000   
    144. D(B   1,B   5,B   4,B   2)      0.0000         0.010000   
    145. D(B  11,B   6,B   5,B   1)   -125.2644         0.010000   
    146. D(B   1,B   6,B   5,B   4)     70.5288         0.010000   
    147. D(B   1,B   6,B   5,B   9)    125.2644         0.010000   
    148. D(B   7,B   6,B   5,B   4)      0.0000         0.010000   
    149. D(B  11,B   6,B   1,B   0)    -54.7356         0.010000   
    150. D(B   7,B   6,B   5,B   9)     54.7356         0.010000   
    151. D(B   7,B   6,B   1,B   5)    125.2644         0.010000   
    152. D(B   7,B   6,B   1,B   2)     54.7356         0.010000   
    153. D(B   7,B   6,B   5,B   1)    -70.5288         0.010000   
    154. D(B   5,B   6,B   1,B   0)   -125.2644         0.010000   
    155. D(B   7,B   6,B   1,B   0)      0.0000         0.010000   
    156. D(B   5,B   6,B   1,B   2)    -70.5288         0.010000   
    157. D(B   6,B   7,B   0,B   8)   -125.2644         0.010000   
    158. D(B   6,B   7,B   0,B   2)    -54.7356         0.010000   
    159. D(B   6,B   7,B   0,B   1)      0.0000         0.010000   
    160. D(B   8,B   7,B   6,B  11)     70.5288         0.010000   
    161. D(B   0,B   7,B   6,B   1)      0.0000         0.010000   
    162. D(B   0,B   7,B   6,B  11)    125.2644         0.010000   
    163. D(B   0,B   7,B   6,B   5)     54.7356         0.010000   
    164. D(B   8,B   7,B   6,B   5)      0.0000         0.010000   
    165. D(B  11,B   7,B   0,B   1)     54.7356         0.010000   
    166. D(B   8,B   7,B   0,B   2)     70.5288         0.010000   
    167. D(B   8,B   7,B   0,B   1)    125.2644         0.010000   
    168. D(B   8,B   7,B   6,B   1)    -54.7356         0.010000   
    169. D(B  10,B   8,B   7,B   0)   -125.2644         0.010000   
    170. D(B   3,B   8,B   7,B  11)     54.7356         0.010000   
    171. D(B   3,B   8,B   7,B   6)      0.0000         0.010000   
    172. D(B   0,B   8,B   7,B  11)    125.2644         0.010000   
    173. D(B   0,B   8,B   7,B   6)     70.5288         0.010000   
    174. D(B   7,B   8,B   3,B  10)    -70.5288         0.010000   
    175. D(B   7,B   8,B   3,B   4)      0.0000         0.010000   
    176. D(B   7,B   8,B   3,B   2)     54.7356         0.010000   
    177. D(B   0,B   8,B   3,B  10)   -125.2644         0.010000   
    178. D(B   0,B   8,B   3,B   4)    -54.7356         0.010000   
    179. D(B   0,B   8,B   3,B   2)      0.0000         0.010000   
    180. D(B  10,B   8,B   0,B   1)      0.0000         0.010000   
    181. D(B   7,B   8,B   0,B   2)   -125.2644         0.010000   
    182. D(B   3,B   8,B   7,B   0)    -70.5288         0.010000   
    183. D(B   7,B   8,B   0,B   1)    -70.5288         0.010000   
    184. D(B   3,B   8,B   0,B   7)    125.2644         0.010000   
    185. D(B   3,B   8,B   0,B   2)      0.0000         0.010000   
    186. D(B   3,B   8,B   0,B   1)     54.7356         0.010000   
    187. D(B  11,B   9,B   5,B   1)     54.7356         0.010000   
    188. D(B  10,B   9,B   5,B   6)    -54.7356         0.010000   
    189. D(B  10,B   9,B   5,B   4)     70.5288         0.010000   
    190. D(B  10,B   9,B   5,B   1)      0.0000         0.010000   
    191. D(B   4,B   9,B   5,B   6)   -125.2644         0.010000   
    192. D(B   4,B   9,B   5,B   1)    -70.5288         0.010000   
    193. D(B  11,B   9,B   4,B   2)      0.0000         0.010000   
    194. D(B  10,B   9,B   4,B   5)   -125.2644         0.010000   
    195. D(B  10,B   9,B   4,B   3)      0.0000         0.010000   
    196. D(B  10,B   9,B   4,B   2)    -54.7356         0.010000   
    197. D(B   5,B   9,B   4,B   3)    125.2644         0.010000   
    198. D(B   5,B   9,B   4,B   2)     70.5288         0.010000   
    199. D(B   8,B  10,B   9,B  11)    -70.5288         0.010000   
    200. D(B   8,B  10,B   9,B   4)     54.7356         0.010000   
    201. D(B   3,B  10,B   9,B  11)   -125.2644         0.010000   
    202. D(B   3,B  10,B   9,B   5)    -54.7356         0.010000   
    203. D(B   3,B  10,B   9,B   4)      0.0000         0.010000   
    204. D(B  11,B  10,B   8,B   0)    -54.7356         0.010000   
    205. D(B   9,B  10,B   8,B   7)     54.7356         0.010000   
    206. D(B   9,B  10,B   8,B   3)    -70.5288         0.010000   
    207. D(B   9,B  10,B   8,B   0)      0.0000         0.010000   
    208. D(B   3,B  10,B   8,B   7)    125.2644         0.010000   
    209. D(B   3,B  10,B   8,B   0)     70.5288         0.010000   
    210. D(B  11,B  10,B   3,B   2)      0.0000         0.010000   
    211. D(B   9,B  10,B   3,B   8)    125.2644         0.010000   
    212. D(B   9,B  10,B   3,B   4)      0.0000         0.010000   
    213. D(B   9,B  10,B   3,B   2)     54.7356         0.010000   
    214. D(B   8,B  10,B   9,B   5)      0.0000         0.010000   
    215. D(B   8,B  10,B   3,B   4)   -125.2644         0.010000   
    216. D(B   8,B  10,B   3,B   2)    -70.5288         0.010000   
    217. D(B  10,B  11,B   6,B   1)      0.0000         0.010000   
    218. D(B   9,B  11,B   6,B   7)   -125.2644         0.010000   
    219. D(B   9,B  11,B   6,B   5)      0.0000         0.010000   
    220. D(B   9,B  11,B   6,B   1)    -54.7356         0.010000   
    221. D(B   7,B  11,B   6,B   5)    125.2644         0.010000   
    222. D(B   6,B  11,B   7,B   0)    -70.5288         0.010000   
    223. D(B   7,B  11,B   6,B   1)     70.5288         0.010000   
    224. D(B   7,B  11,B  10,B   9)   -125.2644         0.010000   
    225. D(B   7,B  11,B  10,B   3)    -54.7356         0.010000   
    226. D(B   6,B  11,B  10,B   9)    -70.5288         0.010000   
    227. D(B   6,B  11,B  10,B   8)     54.7356         0.010000   
    228. D(B   7,B  11,B   9,B  10)     70.5288         0.010000   
    229. D(B   7,B  11,B   9,B   5)    -54.7356         0.010000   
    230. D(B   7,B  11,B   9,B   4)      0.0000         0.010000   
    231. D(B   6,B  11,B   9,B  10)    125.2644         0.010000   
    232. D(B   6,B  11,B   9,B   5)      0.0000         0.010000   
    233. D(B   6,B  11,B   9,B   4)     54.7356         0.010000   
    234. D(B   6,B  11,B  10,B   3)      0.0000         0.010000   
    235. D(B  10,B  11,B   7,B   0)     54.7356         0.010000   
    236. D(B   9,B  11,B   7,B   8)    -54.7356         0.010000   
    237. D(B   9,B  11,B   7,B   6)     70.5288         0.010000   
    238. D(B   7,B  11,B  10,B   8)      0.0000         0.010000   
    239. D(B   9,B  11,B   7,B   0)      0.0000         0.010000   
    240. D(B   6,B  11,B   7,B   8)   -125.2644         0.010000   
    -----------------------------------------------------------------

Number of atoms                         .... 12
Number of degrees of freedom            .... 240


         *************************************************************
         *                GEOMETRY OPTIMIZATION CYCLE   1            *
         *************************************************************
---------------------------------
CARTESIAN COORDINATES (ANGSTROEM)
---------------------------------
  B      0.000000   -1.414214   -1.414214
  B     -1.414214    0.000000   -1.414214
  B     -1.414214   -1.414214    0.000000
  B      0.000000   -1.414214    1.414214
  B     -1.414214    0.000000    1.414214
  B     -1.414214    1.414214    0.000000
  B      0.000000    1.414214   -1.414214
  B      1.414214    0.000000   -1.414214
  B      1.414214   -1.414214    0.000000
  B      0.000000    1.414214    1.414214
  B      1.414214    0.000000    1.414214
  B      1.414214    1.414214    0.000000

----------------------------
CARTESIAN COORDINATES (A.U.)
----------------------------
  NO LB      ZA    FRAG     MASS         X           Y           Z
   0 B     5.0000    0    10.810    0.000000   -2.672476   -2.672476
   1 B     5.0000    0    10.810   -2.672476    0.000000   -2.672476
   2 B     5.0000    0    10.810   -2.672476   -2.672476    0.000000
   3 B     5.0000    0    10.810    0.000000   -2.672476    2.672476
   4 B     5.0000    0    10.810   -2.672476    0.000000    2.672476
   5 B     5.0000    0    10.810   -2.672476    2.672476    0.000000
   6 B     5.0000    0    10.810    0.000000    2.672476   -2.672476
   7 B     5.0000    0    10.810    2.672476    0.000000   -2.672476
   8 B     5.0000    0    10.810    2.672476   -2.672476    0.000000
   9 B     5.0000    0    10.810    0.000000    2.672476    2.672476
  10 B     5.0000    0    10.810    2.672476    0.000000    2.672476
  11 B     5.0000    0    10.810    2.672476    2.672476    0.000000

--------------------------------
INTERNAL COORDINATES (ANGSTROEM)
--------------------------------
 B      0   0   0     0.000000000000     0.00000000     0.00000000
 B      1   0   0     1.999999996644     0.00000000     0.00000000
 B      1   2   0     1.999999996644    60.00000000     0.00000000
 B      3   1   2     1.999999996644    90.00000000   234.73561032
 B      3   1   2     1.999999996644   120.00000000   289.47122063
 B      2   1   3     1.999999996644   120.00000000    70.52877937
 B      2   1   3     1.999999996644    90.00000000   125.26438968
 B      1   2   3     1.999999996644    90.00000000   234.73561032
 B      1   2   3     1.999999996644   120.00000000   289.47122063
 B      5   3   1     1.999999996644   120.00000000     0.00000000
 B      4   3   1     1.999999996644   120.00000000    54.73561032
 B      7   2   1     1.999999996644   120.00000000   305.26438968

---------------------------
INTERNAL COORDINATES (A.U.)
---------------------------
 B      0   0   0     0.000000000000     0.00000000     0.00000000
 B      1   0   0     3.779452261500     0.00000000     0.00000000
 B      1   2   0     3.779452261500    60.00000000     0.00000000
 B      3   1   2     3.779452261500    90.00000000   234.73561032
 B      3   1   2     3.779452261500   120.00000000   289.47122063
 B      2   1   3     3.779452261500   120.00000000    70.52877937
 B      2   1   3     3.779452261500    90.00000000   125.26438968
 B      1   2   3     3.779452261500    90.00000000   234.73561032
 B      1   2   3     3.779452261500   120.00000000   289.47122063
 B      5   3   1     3.779452261500   120.00000000     0.00000000
 B      4   3   1     3.779452261500   120.00000000    54.73561032
 B      7   2   1     3.779452261500   120.00000000   305.26438968

---------------------
BASIS SET INFORMATION
---------------------
There are 1 groups of distinct atoms

 Group   1 Type B   : 7s4p1d contracted to 3s2p1d pattern {511/31/1}

Atom   0B    basis set group =>   1
Atom   1B    basis set group =>   1
Atom   2B    basis set group =>   1
Atom   3B    basis set group =>   1
Atom   4B    basis set group =>   1
Atom   5B    basis set group =>   1
Atom   6B    basis set group =>   1
Atom   7B    basis set group =>   1
Atom   8B    basis set group =>   1
Atom   9B    basis set group =>   1
Atom  10B    basis set group =>   1
Atom  11B    basis set group =>   1
---------------------------------
AUXILIARY/J BASIS SET INFORMATION
---------------------------------
There are 1 groups of distinct atoms

 Group   1 Type B   : 12s5p4d2f1g contracted to 6s4p3d1f1g pattern {711111/2111/211/2/1}

Atom   0B    basis set group =>   1
Atom   1B    basis set group =>   1
Atom   2B    basis set group =>   1
Atom   3B    basis set group =>   1
Atom   4B    basis set group =>   1
Atom   5B    basis set group =>   1
Atom   6B    basis set group =>   1
Atom   7B    basis set group =>   1
Atom   8B    basis set group =>   1
Atom   9B    basis set group =>   1
Atom  10B    basis set group =>   1
Atom  11B    basis set group =>   1


           ************************************************************
           *        Program running with 8 parallel MPI-processes     *
           *              working on a common directory               *
           ************************************************************
------------------------------------------------------------------------------
                             ORCA STARTUP CALCULATIONS
                           -- RI-GTO INTEGRALS CHOSEN --
------------------------------------------------------------------------------
------------------------------------------------------------------------------
                   ___                                                        
                  /   \      - P O W E R E D   B Y -                         
                 /     \                                                     
                 |  |  |   _    _      __       _____    __    __             
                 |  |  |  | |  | |    /  \     |  _  \  |  |  /  |          
                  \  \/   | |  | |   /    \    | | | |  |  | /  /          
                 / \  \   | |__| |  /  /\  \   | |_| |  |  |/  /          
                |  |  |   |  __  | /  /__\  \  |    /   |      \           
                |  |  |   | |  | | |   __   |  |    \   |  |\   \          
                \     /   | |  | | |  |  |  |  | |\  \  |  | \   \       
                 \___/    |_|  |_| |__|  |__|  |_| \__\ |__|  \__/        
                                                                              
                      - O R C A' S   B I G   F R I E N D -                    
                                      &                                       
                       - I N T E G R A L  F E E D E R -                       
                                                                              
 v1 FN, 2020, v2 2021, v3 2022-2024                                           
------------------------------------------------------------------------------


----------------------
SHARK INTEGRAL PACKAGE
----------------------

Number of atoms                             ...     12
Number of basis functions                   ...    168
Number of shells                            ...     72
Maximum angular momentum                    ...      2
Integral batch strategy                     ... SHARK/LIBINT Hybrid
RI-J (if used) integral strategy            ... SPLIT-RIJ (Revised 2003 algorithm where possible)
Printlevel                                  ...      1
Contraction scheme used                     ... SEGMENTED contraction
Prescreening option                         ... SCHWARTZ
   Thresh                                   ... 2.500e-11
   Tcut                                     ... 2.500e-12
   Tpresel                                  ... 2.500e-12 
Coulomb Range Separation                    ... NOT USED
Exchange Range Separation                   ... NOT USED
Multipole approximations                    ... NOT USED
Finite Nucleus Model                        ... NOT USED
CABS basis                                  ... NOT available
Auxiliary Coulomb fitting basis             ... AVAILABLE
   # of basis functions in Aux-J            ...    588
   # of shells in Aux-J                     ...    180
   Maximum angular momentum in Aux-J        ...      4
Auxiliary J/K fitting basis                 ... NOT available
Auxiliary Correlation fitting basis         ... NOT available
Auxiliary 'external' fitting basis          ... NOT available

Checking pre-screening integrals            ... done (  0.0 sec) Dimension = 72
   => SHARK Basis and OBASIS are compatible. Storing Pre-screening
Shell pair information
Shell pair cut-off parameter TPreSel        ...   2.5e-12
Total number of shell pairs                 ...      2628
Shell pairs after pre-screening             ...      2586
Total number of primitive shell pairs       ...     10596
Primitive shell pairs kept                  ...      7842
          la=0 lb=0:    624 shell pairs
          la=1 lb=0:    864 shell pairs
          la=1 lb=1:    300 shell pairs
          la=2 lb=0:    432 shell pairs
          la=2 lb=1:    288 shell pairs
          la=2 lb=2:     78 shell pairs

Checking whether 4 symmetric matrices of dimension 168 fit in memory
:Max Core in MB      =   2500.00
 MB in use           =      6.90
 MB left             =   2493.10
 MB needed           =      0.43
 Data fit in memory  = YES
Calculating RI/J V-Matrix + Cholesky decomp.... done (  0.0 sec)
Calculating Nuclear repulsion               ... done (  0.0 sec) ENN=    326.381208312978 Eh

Diagonalization of the overlap matrix:
Smallest eigenvalue                        ... 2.122e-04
Time for diagonalization                   ...    0.002 sec
Threshold for overlap eigenvalues          ... 1.000e-07
Number of eigenvalues below threshold      ... 0
Time for construction of square roots      ...    0.002 sec
Total time needed                          ...    0.006 sec

-------------------
DFT GRID GENERATION
-------------------

General Integration Accuracy     IntAcc      ... 4.388
Radial Grid Type                 RadialGrid  ... OptM3 with GC (2021)
Angular Grid (max. ang.)         AngularGrid ... 4 (Lebedev-302)
Angular grid pruning method      GridPruning ... 4 (adaptive)
Weight generation scheme         WeightScheme... mBecke (2022)
Basis function cutoff            BFCut       ... 1.0000e-11
Integration weight cutoff        WCut        ... 1.0000e-14
Partially contracted basis set               ... off
Rotationally invariant grid construction     ... off
Angular grids for H and He will be reduced by one unit

Total number of grid points                  ...    71220
Total number of batches                      ...     1120
Average number of points per batch           ...       63
Average number of grid points per atom       ...     5935
Grids setup in   0.7 sec
Initializing property integral containers    ... done (  0.0 sec)

SHARK setup successfully completed in   0.9 seconds

Maximum memory used throughout the entire STARTUP-calculation: 19.9 MB


           ************************************************************
           *        Program running with 8 parallel MPI-processes     *
           *              working on a common directory               *
           ************************************************************
-------------------------------------------------------------------------------
                                 ORCA GUESS
                   Start orbitals & Density for SCF / CASSCF
-------------------------------------------------------------------------------

------------
SCF SETTINGS
------------
Hamiltonian:
 Density Functional     Method          .... DFT(GTOs)
 Exchange Functional    Exchange        .... B88
   X-Alpha parameter    XAlpha          ....  0.666667
   Becke's b parameter  XBeta           ....  0.004200
 Correlation Functional Correlation     .... P86
 LDA part of GGA corr.  LDAOpt          .... PW91-LDA
 Gradients option       PostSCFGGA      .... off
   NL short-range parameter             ....  4.400000
 RI-approximation to the Coulomb term is turned on
   Number of AuxJ basis functions       .... 588


General Settings:
 Integral files         IntName         .... cuboctahedron_nn2.00
 Hartree-Fock type      HFTyp           .... RHF
 Total Charge           Charge          ....    0
 Multiplicity           Mult            ....    1
 Number of Electrons    NEL             ....   60
 Basis Dimension        Dim             ....  168
 Nuclear Repulsion      ENuc            ....    326.3812083130 Eh

Convergence Acceleration:
 AO-DIIS                CNVDIIS         .... on
   Start iteration      DIISMaxIt       ....     0
   Startup error        DIISStart       ....  0.200000
   # of expansion vecs  DIISMaxEq       ....     5
   Bias factor          DIISBfac        ....   1.050
   Max. coefficient     DIISMaxC        ....  10.000
 MO-DIIS                CNVKDIIS        .... off
 Trust-Rad. Augm. Hess. CNVTRAH         .... auto
   Auto Start mean grad. ratio tolernc. ....  1.125000
   Auto Start start iteration           ....    50
   Auto Start num. interpolation iter.  ....    10
   Max. Number of Micro iterations      ....    24
   Max. Number of Macro iterations      .... Maxiter - #DIIS iter
   Number of Davidson start vectors     ....     2
   Converg. threshold    (grad. norm)   ....   1.000e-05
   Grad. Scal. Fac. for Micro threshold ....   0.100
   Minimum threshold for Micro iter.    ....   1.000e-02
   NR start threshold (gradient norm)   ....   1.000e-04
   Initial trust radius                 ....   0.400
   Minimum AH scaling param. (alpha)    ....   1.000
   Maximum AH scaling param. (alpha)    .... 1000.000
   Quad. conv. algorithm                .... NR
   White noise on init. David. guess    .... on
   Maximum white noise                  ....   0.010
   Pseudo random numbers                .... off
   Inactive MOs                         .... canonical
   Orbital update algorithm             .... Taylor
   Preconditioner                       .... Diag
   Full preconditioner red. dimension   ....   250
 SOSCF                 CNVSOSCF           .... on
   Start iteration     SOSCFMaxIt         ....   150
   Startup grad/error  SOSCFStart         ....  0.001000
   Hessian update      SOSCFHessUp        .... L-BFGS
   Autom. constraints  SOSCFAutoConstrain .... off
 Level Shifting         CNVShift        .... on
   Level shift para.    LevelShift      ....    0.2500
   Turn off err/grad.   ShiftErr        ....    0.0000
 Zerner damping         CNVZerner       .... off
 Static damping         CNVDamp         .... on
   Fraction old density DampFac         ....    0.8500
   Max. Damping (<1)    DampMax         ....    0.9800
   Min. Damping (>=0)   DampMin         ....    0.0000
   Turn off err/grad.   DampErr         ....    0.0300

SCF Procedure:
 Maximum # iterations   MaxIter         ....   125
 SCF integral mode      SCFMode         .... Direct
   Integral package                     .... SHARK and LIBINT hybrid scheme
 Reset frequency        DirectResetFreq ....    20
 Integral Threshold     Thresh          ....  2.500e-11 Eh
 Primitive CutOff       TCut            ....  2.500e-12 Eh

Convergence Tolerance:
 Convergence Check Mode ConvCheckMode   .... Total+1el-Energy
 Convergence forced     ConvForced      .... 0
 Energy Change          TolE            ....  1.000e-08 Eh
 1-El. energy change                    ....  1.000e-05 Eh
 Orbital Gradient       TolG            ....  1.000e-05
 Orbital Rotation angle TolX            ....  1.000e-05
 DIIS Error             TolErr          ....  5.000e-07

------------------------------
INITIAL GUESS: MODEL POTENTIAL
------------------------------
Loading Hartree-Fock densities                     ... done
Calculating cut-offs                               ... done
Initializing the effective Hamiltonian             ... done
Setting up the integral package (SHARK)            ... done
Starting the Coulomb interaction                   ... done (   0.0 sec)
Making the grid                                    ... done (   0.2 sec)
Mapping shells                                     ... done
Starting the XC term evaluation                    ... done (   0.0 sec)
  promolecular density results
     # of electrons  =     60.004622794
     EX              =    -45.243862365
     EC              =     -1.951510229
     EX+EC           =    -47.195372594
Transforming the Hamiltonian                       ... done (   0.0 sec)
Diagonalizing the Hamiltonian                      ... done (   0.0 sec)
Back transforming the eigenvectors                 ... done (   0.0 sec)
Now organizing SCF variables                       ... done
                      ------------------
                      INITIAL GUESS DONE (   0.3 sec)
                      ------------------
             **** ENERGY FILE WAS UPDATED (cuboctahedron_nn2.00.en.tmp) ****
Finished Guess after   0.7 sec
Maximum memory used throughout the entire GUESS-calculation: 9.7 MB


           ************************************************************
           *        Program running with 8 parallel MPI-processes     *
           *              working on a common directory               *
           ************************************************************

-------------------------------------------------------------------------------------------
                                      ORCA LEAN-SCF
                              memory conserving SCF solver
-------------------------------------------------------------------------------------------

----------------------------------------D-I-I-S--------------------------------------------
Iteration    Energy (Eh)           Delta-E    RMSDP     MaxDP     DIISErr   Damp  Time(sec)
-------------------------------------------------------------------------------------------
               ***  Starting incremental Fock matrix formation  ***
    1    -296.9866226288628468     0.00e+00  6.50e-03  3.50e-02  5.52e-02  0.850   0.4
Warning: op=0 Small HOMO/LUMO gap (  -0.039) - skipping pre-diagonalization
         Will do a full diagonalization
    2    -297.0243645661805658    -3.77e-02  1.00e-02  6.24e-02  4.09e-02  0.850   0.3
                               ***Turning on AO-DIIS***
    3    -297.0493796777128637    -2.50e-02  7.77e-03  5.75e-02  2.39e-02  0.850   0.3
    4    -297.0623804049122327    -1.30e-02  3.65e-02  2.69e-01  1.46e-02  0.000   0.4
    5    -297.0880341296170855    -2.57e-02  6.55e-03  5.16e-02  2.10e-02  0.000   0.4
    6    -297.1013232975832352    -1.33e-02  3.68e-03  3.20e-02  1.06e-02  0.000   0.3
    7    -297.1043963531008103    -3.07e-03  2.04e-03  1.49e-02  5.00e-03  0.000   0.3
    8    -297.1053322525965541    -9.36e-04  1.07e-03  9.47e-03  2.43e-03  0.000   0.4
    9    -297.1055143291034710    -1.82e-04  5.95e-04  3.66e-03  1.08e-03  0.000   0.4
                              *** Initializing SOSCF ***
---------------------------------------S-O-S-C-F--------------------------------------
Iteration    Energy (Eh)           Delta-E    RMSDP     MaxDP     MaxGrad    Time(sec)
--------------------------------------------------------------------------------------
   10    -297.1056101861815932    -9.59e-05  3.34e-04  2.06e-03  5.22e-04     0.3
               *** Restarting incremental Fock matrix formation ***
   11    -297.1056453744270129    -3.52e-05  5.56e-04  2.14e-03  9.21e-04     0.3
   12    -297.1056722901765852    -2.69e-05  6.60e-04  2.77e-03  7.57e-04     0.3
   13    -297.1057050119536598    -3.27e-05  2.80e-04  2.00e-03  2.66e-04     0.3
   14    -297.1057083323303232    -3.32e-06  1.27e-04  8.73e-04  2.60e-04     0.3
   15    -297.1057108932282063    -2.56e-06  7.15e-05  3.61e-04  8.67e-05     0.3
   16    -297.1057118811013424    -9.88e-07  1.88e-04  6.73e-04  7.39e-05     0.4
   17    -297.1057133322452728    -1.45e-06  4.55e-04  1.33e-03  1.18e-04     0.4
   18    -297.1057126639398120     6.68e-07  1.16e-04  8.71e-04  3.44e-04     0.4
   19    -297.1057161573553458    -3.49e-06  1.57e-04  1.38e-03  1.97e-04     0.7
   20    -297.1057168227492866    -6.65e-07  1.75e-04  6.81e-04  2.27e-04     0.4
   21    -297.1057176480574071    -8.25e-07  3.29e-04  1.12e-03  2.23e-04     0.3
   22    -297.1057184332769339    -7.85e-07  1.05e-04  6.55e-04  1.24e-04     0.5
   23    -297.1057196173569537    -1.18e-06  6.07e-05  1.68e-04  4.20e-05     0.3
   24    -297.1057198032106044    -1.86e-07  1.47e-04  4.62e-04  3.47e-05     0.3
   25    -297.1057197117489750     9.15e-08  3.60e-05  2.85e-04  1.06e-04     0.3
   26    -297.1057198733104769    -1.62e-07  8.60e-05  2.66e-04  5.18e-05     0.3
   27    -297.1057199722678206    -9.90e-08  3.91e-05  1.63e-04  3.20e-05     0.3
   28    -297.1057200303162062    -5.80e-08  1.47e-05  7.86e-05  1.09e-05     0.3
   29    -297.1057200333907531    -3.07e-09  8.70e-06  3.72e-05  1.38e-05     0.3
                 **** Energy Check signals convergence ****

               *****************************************************
               *                     SUCCESS                       *
               *           SCF CONVERGED AFTER  29 CYCLES          *
               *****************************************************

             **** ENERGY FILE WAS UPDATED (cuboctahedron_nn2.00.en.tmp) ****

----------------
TOTAL SCF ENERGY
----------------

Total Energy       :       -297.10572004208245 Eh           -8084.65766 eV

Components:
Nuclear Repulsion  :        326.38120831297817 Eh            8881.28419 eV
Electronic Energy  :       -623.48692835506063 Eh          -16965.94185 eV
One Electron Energy:      -1040.66008640926520 Eh          -28317.80060 eV
Two Electron Energy:        417.17315805420452 Eh           11351.85875 eV

Virial components:
Potential Energy   :       -588.52419749535125 Eh          -16014.55758 eV
Kinetic Energy     :        291.41847745326879 Eh            7929.89992 eV
Virial Ratio       :          2.01951572404919

DFT components:
N(Alpha)           :       30.000060307198 electrons
N(Beta)            :       30.000060307198 electrons
N(Total)           :       60.000120614395 electrons
E(X)               :      -45.463190127125 Eh       
E(C)               :       -1.980767070140 Eh       
E(XC)              :      -47.443957197264 Eh       

---------------
SCF CONVERGENCE
---------------

  Last Energy change         ...    3.0745e-09  Tolerance :   1.0000e-08
  Last MAX-Density change    ...    3.7194e-05  Tolerance :   1.0000e-07
  Last RMS-Density change    ...    8.6958e-06  Tolerance :   5.0000e-09
  Last DIIS Error            ...    5.2157e-04  Tolerance :   5.0000e-07
  Last Orbital Gradient      ...    1.3794e-05  Tolerance :   1.0000e-05
  Last Orbital Rotation      ...    1.3803e-04  Tolerance :   1.0000e-05


----------------
ORBITAL ENERGIES
----------------

  NO   OCC          E(Eh)            E(eV) 
   0   2.0000      -6.638073      -180.6311 
   1   2.0000      -6.638023      -180.6298 
   2   2.0000      -6.638008      -180.6294 
   3   2.0000      -6.637992      -180.6289 
   4   2.0000      -6.637978      -180.6286 
   5   2.0000      -6.637850      -180.6251 
   6   2.0000      -6.621756      -180.1871 
   7   2.0000      -6.621729      -180.1864 
   8   2.0000      -6.621723      -180.1862 
   9   2.0000      -6.621691      -180.1854 
  10   2.0000      -6.621637      -180.1839 
  11   2.0000      -6.621537      -180.1812 
  12   2.0000      -0.633291       -17.2327 
  13   2.0000      -0.535999       -14.5853 
  14   2.0000      -0.535986       -14.5849 
  15   2.0000      -0.525661       -14.3040 
  16   2.0000      -0.422638       -11.5006 
  17   2.0000      -0.422613       -11.4999 
  18   2.0000      -0.414532       -11.2800 
  19   2.0000      -0.367995       -10.0137 
  20   2.0000      -0.367978       -10.0132 
  21   2.0000      -0.336311        -9.1515 
  22   2.0000      -0.290617        -7.9081 
  23   2.0000      -0.256905        -6.9907 
  24   2.0000      -0.252758        -6.8779 
  25   2.0000      -0.252746        -6.8776 
  26   2.0000      -0.230948        -6.2844 
  27   2.0000      -0.225750        -6.1430 
  28   2.0000      -0.225730        -6.1424 
  29   2.0000      -0.204991        -5.5781 
  30   0.0000      -0.212290        -5.7767 
  31   0.0000      -0.212275        -5.7763 
  32   0.0000      -0.158172        -4.3041 
  33   0.0000      -0.158161        -4.3038 
  34   0.0000      -0.155046        -4.2190 
  35   0.0000      -0.126644        -3.4461 
  36   0.0000      -0.126622        -3.4456 
  37   0.0000      -0.122784        -3.3411 
  38   0.0000      -0.120319        -3.2741 
  39   0.0000      -0.120311        -3.2738 
  40   0.0000      -0.015534        -0.4227 
*Only the first 10 virtual orbitals were printed.

                    ********************************
                    * MULLIKEN POPULATION ANALYSIS *
                    ********************************

-----------------------
MULLIKEN ATOMIC CHARGES
-----------------------
   0 B :    0.002557
   1 B :   -0.002551
   2 B :    0.002630
   3 B :   -0.002575
   4 B :    0.002573
   5 B :   -0.002613
   6 B :   -0.002585
   7 B :    0.002566
   8 B :   -0.002613
   9 B :    0.002557
  10 B :   -0.002564
  11 B :    0.002619
Sum of atomic charges:   -0.0000000

--------------------------------
MULLIKEN REDUCED ORBITAL CHARGES
--------------------------------
  0 B s       :     3.427723  s :     3.427723
      pz      :     0.466035  p :     1.532513
      px      :     0.600346
      py      :     0.466132
      dz2     :     0.008012  d :     0.037207
      dxz     :     0.008305
      dyz     :     0.003662
      dx2y2   :     0.008922
      dxy     :     0.008306

  1 B s       :     3.353934  s :     3.353934
      pz      :     0.517753  p :     1.612983
      px      :     0.518134
      py      :     0.577096
      dz2     :     0.007029  d :     0.035634
      dxz     :     0.004971
      dyz     :     0.007631
      dx2y2   :     0.008371
      dxy     :     0.007632

  2 B s       :     3.427656  s :     3.427656
      pz      :     0.600278  p :     1.532509
      px      :     0.466096
      py      :     0.466134
      dz2     :     0.009379  d :     0.037206
      dxz     :     0.008303
      dyz     :     0.008304
      dx2y2   :     0.007559
      dxy     :     0.003661

  3 B s       :     3.353957  s :     3.353957
      pz      :     0.517768  p :     1.612984
      px      :     0.577063
      py      :     0.518153
      dz2     :     0.007030  d :     0.035634
      dxz     :     0.007630
      dyz     :     0.004972
      dx2y2   :     0.008370
      dxy     :     0.007632

  4 B s       :     3.427735  s :     3.427735
      pz      :     0.466034  p :     1.532484
      px      :     0.466101
      py      :     0.600350
      dz2     :     0.008012  d :     0.037208
      dxz     :     0.003662
      dyz     :     0.008306
      dx2y2   :     0.008922
      dxy     :     0.008307

  5 B s       :     3.353719  s :     3.353719
      pz      :     0.576837  p :     1.613262
      px      :     0.518209
      py      :     0.518217
      dz2     :     0.009038  d :     0.035632
      dxz     :     0.007627
      dyz     :     0.007628
      dx2y2   :     0.006361
      dxy     :     0.004978

  6 B s       :     3.353959  s :     3.353959
      pz      :     0.517770  p :     1.612991
      px      :     0.577064
      py      :     0.518157
      dz2     :     0.007030  d :     0.035634
      dxz     :     0.007630
      dyz     :     0.004972
      dx2y2   :     0.008370
      dxy     :     0.007632

  7 B s       :     3.427735  s :     3.427735
      pz      :     0.466037  p :     1.532491
      px      :     0.466103
      py      :     0.600351
      dz2     :     0.008012  d :     0.037208
      dxz     :     0.003662
      dyz     :     0.008306
      dx2y2   :     0.008922
      dxy     :     0.008307

  8 B s       :     3.353717  s :     3.353717
      pz      :     0.576837  p :     1.613264
      px      :     0.518212
      py      :     0.518215
      dz2     :     0.009038  d :     0.035632
      dxz     :     0.007627
      dyz     :     0.007628
      dx2y2   :     0.006361
      dxy     :     0.004978

  9 B s       :     3.427722  s :     3.427722
      pz      :     0.466035  p :     1.532514
      px      :     0.600347
      py      :     0.466133
      dz2     :     0.008012  d :     0.037207
      dxz     :     0.008305
      dyz     :     0.003662
      dx2y2   :     0.008922
      dxy     :     0.008306

 10 B s       :     3.353939  s :     3.353939
      pz      :     0.517756  p :     1.612991
      px      :     0.518136
      py      :     0.577098
      dz2     :     0.007029  d :     0.035634
      dxz     :     0.004971
      dyz     :     0.007631
      dx2y2   :     0.008371
      dxy     :     0.007632

 11 B s       :     3.427661  s :     3.427661
      pz      :     0.600280  p :     1.532514
      px      :     0.466099
      py      :     0.466135
      dz2     :     0.009379  d :     0.037206
      dxz     :     0.008303
      dyz     :     0.008304
      dx2y2   :     0.007559
      dxy     :     0.003661



                     *******************************
                     * LOEWDIN POPULATION ANALYSIS *
                     *******************************

----------------------
LOEWDIN ATOMIC CHARGES
----------------------
   0 B :    0.023093
   1 B :   -0.022995
   2 B :    0.023154
   3 B :   -0.023043
   4 B :    0.023110
   5 B :   -0.023300
   6 B :   -0.023052
   7 B :    0.023103
   8 B :   -0.023302
   9 B :    0.023091
  10 B :   -0.023004
  11 B :    0.023145

-------------------------------
LOEWDIN REDUCED ORBITAL CHARGES
-------------------------------
  0 B s       :     2.997854  s :     2.997854
      pz      :     0.592677  p :     1.895663
      px      :     0.710267
      py      :     0.592720
      dz2     :     0.015680  d :     0.083390
      dxz     :     0.023584
      dyz     :     0.004773
      dx2y2   :     0.015765
      dxy     :     0.023588

  1 B s       :     2.973585  s :     2.973585
      pz      :     0.636320  p :     1.968080
      px      :     0.636701
      py      :     0.695058
      dz2     :     0.014086  d :     0.081330
      dxz     :     0.006550
      dyz     :     0.022837
      dx2y2   :     0.015018
      dxy     :     0.022840

  2 B s       :     2.997833  s :     2.997833
      pz      :     0.710206  p :     1.895627
      px      :     0.592694
      py      :     0.592727
      dz2     :     0.015811  d :     0.083386
      dxz     :     0.023580
      dyz     :     0.023581
      dx2y2   :     0.015641
      dxy     :     0.004772

  3 B s       :     2.973590  s :     2.973590
      pz      :     0.636355  p :     1.968124
      px      :     0.695037
      py      :     0.636732
      dz2     :     0.014087  d :     0.081329
      dxz     :     0.022835
      dyz     :     0.006551
      dx2y2   :     0.015018
      dxy     :     0.022839

  4 B s       :     2.997854  s :     2.997854
      pz      :     0.592679  p :     1.895645
      px      :     0.592696
      py      :     0.710270
      dz2     :     0.015679  d :     0.083391
      dxz     :     0.004773
      dyz     :     0.023586
      dx2y2   :     0.015765
      dxy     :     0.023589

  5 B s       :     2.973473  s :     2.973473
      pz      :     0.694878  p :     1.968504
      px      :     0.636815
      py      :     0.636812
      dz2     :     0.015480  d :     0.081323
      dxz     :     0.022829
      dyz     :     0.022830
      dx2y2   :     0.013625
      dxy     :     0.006559

  6 B s       :     2.973592  s :     2.973592
      pz      :     0.636357  p :     1.968131
      px      :     0.695038
      py      :     0.636735
      dz2     :     0.014087  d :     0.081329
      dxz     :     0.022835
      dyz     :     0.006551
      dx2y2   :     0.015018
      dxy     :     0.022839

  7 B s       :     2.997855  s :     2.997855
      pz      :     0.592681  p :     1.895651
      px      :     0.592698
      py      :     0.710271
      dz2     :     0.015679  d :     0.083392
      dxz     :     0.004773
      dyz     :     0.023586
      dx2y2   :     0.015765
      dxy     :     0.023589

  8 B s       :     2.973473  s :     2.973473
      pz      :     0.694878  p :     1.968506
      px      :     0.636816
      py      :     0.636812
      dz2     :     0.015480  d :     0.081323
      dxz     :     0.022829
      dyz     :     0.022830
      dx2y2   :     0.013625
      dxy     :     0.006559

  9 B s       :     2.997854  s :     2.997854
      pz      :     0.592677  p :     1.895665
      px      :     0.710267
      py      :     0.592721
      dz2     :     0.015680  d :     0.083390
      dxz     :     0.023584
      dyz     :     0.004773
      dx2y2   :     0.015765
      dxy     :     0.023588

 10 B s       :     2.973587  s :     2.973587
      pz      :     0.636323  p :     1.968087
      px      :     0.636704
      py      :     0.695060
      dz2     :     0.014086  d :     0.081330
      dxz     :     0.006550
      dyz     :     0.022837
      dx2y2   :     0.015018
      dxy     :     0.022840

 11 B s       :     2.997835  s :     2.997835
      pz      :     0.710207  p :     1.895633
      px      :     0.592697
      py      :     0.592729
      dz2     :     0.015811  d :     0.083387
      dxz     :     0.023580
      dyz     :     0.023581
      dx2y2   :     0.015641
      dxy     :     0.004772



                      *****************************
                      * MAYER POPULATION ANALYSIS *
                      *****************************

  NA   - Mulliken gross atomic population
  ZA   - Total nuclear charge
  QA   - Mulliken gross atomic charge
  VA   - Mayer's total valence
  BVA  - Mayer's bonded valence
  FA   - Mayer's free valence

  ATOM       NA         ZA         QA         VA         BVA        FA
  0 B      4.9974     5.0000     0.0026     2.9377     2.9377    -0.0000
  1 B      5.0026     5.0000    -0.0026     3.0112     3.0112    -0.0000
  2 B      4.9974     5.0000     0.0026     2.9376     2.9376    -0.0000
  3 B      5.0026     5.0000    -0.0026     3.0111     3.0111    -0.0000
  4 B      4.9974     5.0000     0.0026     2.9376     2.9376    -0.0000
  5 B      5.0026     5.0000    -0.0026     3.0115     3.0115    -0.0000
  6 B      5.0026     5.0000    -0.0026     3.0111     3.0111     0.0000
  7 B      4.9974     5.0000     0.0026     2.9376     2.9376    -0.0000
  8 B      5.0026     5.0000    -0.0026     3.0115     3.0115    -0.0000
  9 B      4.9974     5.0000     0.0026     2.9377     2.9377    -0.0000
 10 B      5.0026     5.0000    -0.0026     3.0112     3.0112     0.0000
 11 B      4.9974     5.0000     0.0026     2.9376     2.9376    -0.0000

  Mayer bond orders larger than 0.100000
B(  0-B ,  1-B ) :   0.5099 B(  0-B ,  2-B ) :   0.5061 B(  0-B ,  3-B ) :   0.1427 
B(  0-B ,  4-B ) :   0.1072 B(  0-B ,  5-B ) :   0.1399 B(  0-B ,  6-B ) :   0.1423 
B(  0-B ,  7-B ) :   0.5061 B(  0-B ,  8-B ) :   0.5100 B(  0-B ,  9-B ) :   0.1256 
B(  0-B , 10-B ) :   0.1405 B(  0-B , 11-B ) :   0.1074 B(  1-B ,  2-B ) :   0.5100 
B(  1-B ,  4-B ) :   0.1427 B(  1-B ,  5-B ) :   0.5771 B(  1-B ,  6-B ) :   0.5767 
B(  1-B ,  7-B ) :   0.1423 B(  1-B ,  9-B ) :   0.1405 B(  1-B , 10-B ) :   0.1684 
B(  1-B , 11-B ) :   0.1402 B(  2-B ,  3-B ) :   0.5100 B(  2-B ,  4-B ) :   0.5061 
B(  2-B ,  5-B ) :   0.1424 B(  2-B ,  6-B ) :   0.1401 B(  2-B ,  7-B ) :   0.1074 
B(  2-B ,  8-B ) :   0.1425 B(  2-B ,  9-B ) :   0.1074 B(  2-B , 10-B ) :   0.1402 
B(  2-B , 11-B ) :   0.1256 B(  3-B ,  4-B ) :   0.5099 B(  3-B ,  6-B ) :   0.1685 
B(  3-B ,  7-B ) :   0.1405 B(  3-B ,  8-B ) :   0.5771 B(  3-B ,  9-B ) :   0.1423 
B(  3-B , 10-B ) :   0.5767 B(  3-B , 11-B ) :   0.1401 B(  4-B ,  5-B ) :   0.5100 
B(  4-B ,  6-B ) :   0.1405 B(  4-B ,  7-B ) :   0.1256 B(  4-B ,  8-B ) :   0.1399 
B(  4-B ,  9-B ) :   0.5061 B(  4-B , 10-B ) :   0.1423 B(  4-B , 11-B ) :   0.1074 
B(  5-B ,  6-B ) :   0.5771 B(  5-B ,  7-B ) :   0.1399 B(  5-B ,  8-B ) :   0.1691 
B(  5-B ,  9-B ) :   0.5100 B(  5-B , 11-B ) :   0.1425 B(  6-B ,  7-B ) :   0.5099 
B(  6-B ,  9-B ) :   0.1427 B(  6-B , 11-B ) :   0.5100 B(  7-B ,  8-B ) :   0.5100 
B(  7-B ,  9-B ) :   0.1072 B(  7-B , 10-B ) :   0.1427 B(  7-B , 11-B ) :   0.5061 
B(  8-B ,  9-B ) :   0.1399 B(  8-B , 10-B ) :   0.5771 B(  8-B , 11-B ) :   0.1424 
B(  9-B , 10-B ) :   0.5099 B(  9-B , 11-B ) :   0.5061 B( 10-B , 11-B ) :   0.5100 


-------
TIMINGS
-------

Total SCF time: 0 days 0 hours 0 min 10 sec 

Total time                  ....      10.975 sec
Sum of individual times     ....      10.595 sec  ( 96.5%)

SCF preparation             ....       0.455 sec  (  4.1%)
Fock matrix formation       ....       8.960 sec  ( 81.6%)
  Startup                   ....       0.016 sec  (  0.2% of F)
  Split-RI-J                ....       3.092 sec  ( 34.5% of F)
  XC integration            ....       5.666 sec  ( 63.2% of F)
    XC Preparation          ....       0.000 sec  (  0.0% of XC)
    Basis function eval.    ....       1.353 sec  ( 23.9% of XC)
    Density eval.           ....       0.976 sec  ( 17.2% of XC)
    XC-Functional eval.     ....       0.166 sec  (  2.9% of XC)
    XC-Potential eval.      ....       1.243 sec  ( 21.9% of XC)
Diagonalization             ....       0.000 sec  (  0.0%)
Density matrix formation    ....       0.218 sec  (  2.0%)
Total Energy calculation    ....       0.072 sec  (  0.7%)
Population analysis         ....       0.029 sec  (  0.3%)
Orbital Transformation      ....       0.036 sec  (  0.3%)
Orbital Orthonormalization  ....       0.000 sec  (  0.0%)
DIIS solution               ....       0.273 sec  (  2.5%)
SOSCF solution              ....       0.553 sec  (  5.0%)
Finished LeanSCF after  11.0 sec

Maximum memory used throughout the entire LEANSCF-calculation: 10.2 MB


-------------------------------------------------------------------------------
                          DFT DISPERSION CORRECTION                            
                                                                               
                              DFTD3 V3.1  Rev 1                                
                          USING Becke-Johnson damping                          
-------------------------------------------------------------------------------
The BP86 functional is recognized
Active option DFTDOPT                   ...         4   

molecular C6(AA) [au] = 5825.673335 


            DFT-D V3
 parameters
 s6 scaling factor         :     1.0000 
 a1 scaling factor         :     0.3946 
 s8 scaling factor         :     3.2822 
 a2 scaling factor         :     4.8516 
 ad hoc parameters k1-k3   :    16.0000     1.3333    -4.0000 

 Edisp/kcal,au: -30.083870229443  -0.047941693733 
 E6   /kcal   :  -8.541827169 
 E8   /kcal   : -21.542043060 
 % E8         :  71.606621409 

-------------------------   ----------------
Dispersion correction           -0.047941694
-------------------------   ----------------


-------------------------   --------------------
FINAL SINGLE POINT ENERGY      -297.153661735816
-------------------------   --------------------



           ************************************************************
           *        Program running with 8 parallel MPI-processes     *
           *              working on a common directory               *
           ************************************************************
------------------------------------------------------------------------------
                         ORCA SCF GRADIENT CALCULATION
------------------------------------------------------------------------------

Nuc. rep. gradient        (SHARK) ... done (  0.0 sec)
HCore & Overlap gradient  (SHARK) ... done (  0.0 sec)
Split-RIJ-J gradient      (SHARK) ... done (  0.4 sec)
XC gradient                       ... done (  1.0 sec)
Dispersion correction             ... done (  0.1 sec)

-------------------
DISPERSION GRADIENT
-------------------

   1   B   :   -0.000000000    0.011410762    0.011410762
   2   B   :    0.011410762   -0.000000000    0.011410762
   3   B   :    0.011410762    0.011410762    0.000000000
   4   B   :   -0.000000000    0.011410762   -0.011410762
   5   B   :    0.011410762   -0.000000000   -0.011410762
   6   B   :    0.011410762   -0.011410762   -0.000000000
   7   B   :   -0.000000000   -0.011410762    0.011410762
   8   B   :   -0.011410762   -0.000000000    0.011410762
   9   B   :   -0.011410762    0.011410762   -0.000000000
  10   B   :   -0.000000000   -0.011410762   -0.011410762
  11   B   :   -0.011410762   -0.000000000   -0.011410762
  12   B   :   -0.011410762   -0.011410762   -0.000000000

Difference to translation invariance:
           :   -0.0000000000   -0.0000000000   -0.0000000000

Difference to rotation invariance:
           :    0.0000000000    0.0000000000   -0.0000000000

Norm of the Dispersion gradient    ...    0.0559010871
RMS gradient                       ...    0.0093168479
MAX gradient                       ...    0.0114107616

------------------
CARTESIAN GRADIENT
------------------

   1   B   :   -0.000058181   -0.020765536   -0.020822227
   2   B   :   -0.031446155   -0.021813536   -0.031527826
   3   B   :   -0.020781778   -0.020773269   -0.000002810
   4   B   :   -0.021806012   -0.031437996    0.031523532
   5   B   :   -0.020768553   -0.000055519    0.020817405
   6   B   :   -0.031474431    0.031470396    0.021783251
   7   B   :    0.021805307    0.031438279   -0.031523947
   8   B   :    0.020768982    0.000055113   -0.020818058
   9   B   :    0.031474361   -0.031470765   -0.021783160
  10   B   :    0.000057534    0.020765682    0.020822581
  11   B   :    0.031446442    0.021813079    0.031528345
  12   B   :    0.020782483    0.020774072    0.000002914

Difference to translation invariance:
           :    0.0000000000    0.0000000000    0.0000000000

Difference to rotation invariance:
           :   -0.0000039056   -0.0000015124    0.0000024726

Norm of the Cartesian gradient     ...    0.1411721946
RMS gradient                       ...    0.0235286991
MAX gradient                       ...    0.0315283449

-------
TIMINGS
-------

Total SCF gradient time     ....        1.471 sec

Densities                   ....       0.001 sec  (  0.0%)
One electron gradient       ....       0.050 sec  (  3.4%)
RI-J Coulomb gradient       ....       0.388 sec  ( 26.4%)
XC gradient                 ....       0.978 sec  ( 66.5%)

Maximum memory used throughout the entire SCFGRAD-calculation: 29.7 MB
------------------------------------------------------------------------------
                         ORCA GEOMETRY RELAXATION STEP
------------------------------------------------------------------------------

Reading the OPT-File                    .... done
Getting information on internals        .... done
Copying old internal coords+grads       .... done
Making the new internal coordinates     .... (2022 redundants) done
Validating the new internal coordinates .... (2022 redundants) done
Calculating the B-matrix                .... done
Calculating the G,G- and P matrices     .... done
Transforming gradient to internals      .... done
Projecting the internal gradient        .... done
Number of atoms                         ....  12
Number of internal coordinates          .... 240
Current Energy                          ....  -297.153661736 Eh
Current gradient norm                   ....     0.141172195 Eh/bohr
Maximum allowed component of the step   ....  0.300
Current trust radius                    ....  0.300
Evaluating the initial hessian          ....  (Almloef) done
Projecting the Hessian                  .... done
Forming the augmented Hessian           .... done
Diagonalizing the augmented Hessian     .... done
Last element of RFO vector              ....  0.844812667
Lowest eigenvalues of augmented Hessian:
 -0.060122470  0.021780901  0.037973258  0.038584602  0.038612275
Length of the computed step             ....  0.633350114
Warning: the length of the step is outside the trust region - taking restricted step instead
The input lambda is                     ....     0.020781
   iter:   5  x=   -0.211451  g=    1.049903 f(x)=     0.045417
   iter:  10  x=   -0.226657  g=    0.568831 f(x)=    -0.000000
The output lambda is                    ....    -0.226657 (10 iterations)
The final length of the internal step   ....  0.300000000
Converting the step to Cartesian space:
 Initial RMS(Int)=    0.0193649167
Transforming coordinates:
 Iter   0:  RMS(Cart)=    0.0346426018 RMS(Int)=    0.0193649489
done
Storing new coordinates                 .... done

                                .--------------------.
          ----------------------|Geometry convergence|-------------------------
          Item                value                   Tolerance       Converged
          ---------------------------------------------------------------------
          RMS gradient        0.0061283630            0.0001000000      NO
          MAX gradient        0.0275119695            0.0003000000      NO
          RMS step            0.0193649167            0.0020000000      NO
          MAX step            0.0863191599            0.0040000000      NO
          -------------------------------------------------------------------------
          ........................................................
          Max(Bonds)      0.0457      Max(Angles)    0.29
          Max(Dihed)        0.25      Max(Improp)    0.00
          ---------------------------------------------------------------------

The optimization has not yet converged - more geometry cycles are needed


    ---------------------------------------------------------------------------
                         Redundant Internal Coordinates
                            (Angstroem and degrees)

        Definition                    Value    dE/dq     Step     New-Value
    ----------------------------------------------------------------------------
     1. B(B   1,B   0)                2.0000  0.014290 -0.0240    1.9760   
     2. B(B   2,B   1)                2.0000  0.014355 -0.0241    1.9759   
     3. B(B   2,B   0)                2.0000  0.018145 -0.0305    1.9695   
     4. B(B   3,B   2)                2.0000  0.014399 -0.0242    1.9758   
[...]
      dyz     :     0.011871
      dx2y2   :     0.013096
      dxy     :     0.011074

  9 B s       :     2.522705  s :     2.522705
      pz      :     0.752982  p :     2.206067
      px      :     0.840632
      py      :     0.612453
      dz2     :     0.014054  d :     0.075775
      dxz     :     0.015240
      dyz     :     0.015183
      dx2y2   :     0.016226
      dxy     :     0.015073

 10 B s       :     2.553583  s :     2.553583
      pz      :     0.652742  p :     2.341308
      px      :     0.800372
      py      :     0.888194
      dz2     :     0.015477  d :     0.081972
      dxz     :     0.015660
      dyz     :     0.016484
      dx2y2   :     0.017931
      dxy     :     0.016421

 11 B s       :     2.813053  s :     2.813053
      pz      :     0.774439  p :     2.133355
      px      :     0.676721
      py      :     0.682194
      dz2     :     0.011091  d :     0.054927
      dxz     :     0.010903
      dyz     :     0.006390
      dx2y2   :     0.013897
      dxy     :     0.012647



                     *******************************
                     * LOEWDIN POPULATION ANALYSIS *
                     *******************************

----------------------
LOEWDIN ATOMIC CHARGES
----------------------
   0 B :    0.027144
   1 B :   -0.078698
   2 B :    0.156810
   3 B :   -0.078890
   4 B :   -0.033657
   5 B :   -0.033930
   6 B :    0.054249
   7 B :   -0.066514
   8 B :    0.027608
   9 B :    0.002467
  10 B :    0.053914
  11 B :   -0.030502

-------------------------------
LOEWDIN REDUCED ORBITAL CHARGES
-------------------------------
  0 B s       :     2.798978  s :     2.798978
      pz      :     0.602935  p :     2.046334
      px      :     0.915217
      py      :     0.528183
      dz2     :     0.025550  d :     0.127544
      dxz     :     0.033677
      dyz     :     0.022492
      dx2y2   :     0.022601
      dxy     :     0.023224

  1 B s       :     2.698706  s :     2.698706
      pz      :     0.756890  p :     2.231912
      px      :     0.765554
      py      :     0.709468
      dz2     :     0.033396  d :     0.148080
      dxz     :     0.032759
      dyz     :     0.026429
      dx2y2   :     0.023385
      dxy     :     0.032111

  2 B s       :     2.619652  s :     2.619652
      pz      :     0.796368  p :     2.011845
      px      :     0.587685
      py      :     0.627793
      dz2     :     0.051902  d :     0.211693
      dxz     :     0.046801
      dyz     :     0.041735
      dx2y2   :     0.038644
      dxy     :     0.032610

  3 B s       :     2.698756  s :     2.698756
      pz      :     0.692282  p :     2.232109
      px      :     0.791245
      py      :     0.748582
      dz2     :     0.036402  d :     0.148025
      dxz     :     0.024940
      dyz     :     0.028252
      dx2y2   :     0.029504
      dxy     :     0.028928

  4 B s       :     2.634278  s :     2.634278
      pz      :     0.673438  p :     2.223404
      px      :     0.764782
      py      :     0.785184
      dz2     :     0.036521  d :     0.175976
      dxz     :     0.028199
      dyz     :     0.039330
      dx2y2   :     0.036649
      dxy     :     0.035277

  5 B s       :     2.634478  s :     2.634478
      pz      :     0.837875  p :     2.223614
      px      :     0.714722
      py      :     0.671018
      dz2     :     0.036816  d :     0.175838
      dxz     :     0.044212
      dyz     :     0.030909
      dx2y2   :     0.029419
      dxy     :     0.034483

  6 B s       :     2.590455  s :     2.590455
      pz      :     0.765621  p :     2.150822
      px      :     0.815932
      py      :     0.569269
      dz2     :     0.044483  d :     0.204473
      dxz     :     0.046558
      dyz     :     0.033397
      dx2y2   :     0.041227
      dxy     :     0.038808

  7 B s       :     2.717003  s :     2.717003
      pz      :     0.762557  p :     2.209344
      px      :     0.617558
      py      :     0.829229
      dz2     :     0.025079  d :     0.140167
      dxz     :     0.026561
      dyz     :     0.036435
      dx2y2   :     0.031412
      dxy     :     0.020681

  8 B s       :     2.799251  s :     2.799251
      pz      :     0.779964  p :     2.045569
      px      :     0.631371
      py      :     0.634235
      dz2     :     0.025389  d :     0.127572
      dxz     :     0.019116
      dyz     :     0.030300
      dx2y2   :     0.031337
      dxy     :     0.021429

  9 B s       :     2.576468  s :     2.576468
      pz      :     0.767738  p :     2.226933
      px      :     0.788979
      py      :     0.670217
      dz2     :     0.040584  d :     0.194132
      dxz     :     0.042679
      dyz     :     0.031743
      dx2y2   :     0.036507
      dxy     :     0.042619

 10 B s       :     2.590605  s :     2.590605
      pz      :     0.571018  p :     2.151494
      px      :     0.740564
      py      :     0.839912
      dz2     :     0.035821  d :     0.203988
      dxz     :     0.031595
      dyz     :     0.044051
      dx2y2   :     0.047449
      dxy     :     0.045070

 11 B s       :     2.642751  s :     2.642751
      pz      :     0.819934  p :     2.255486
      px      :     0.743948
      py      :     0.691604
      dz2     :     0.025301  d :     0.132264
      dxz     :     0.030255
      dyz     :     0.017533
      dx2y2   :     0.035739
      dxy     :     0.023436



                      *****************************
                      * MAYER POPULATION ANALYSIS *
                      *****************************

  NA   - Mulliken gross atomic population
  ZA   - Total nuclear charge
  QA   - Mulliken gross atomic charge
  VA   - Mayer's total valence
  BVA  - Mayer's bonded valence
  FA   - Mayer's free valence

  ATOM       NA         ZA         QA         VA         BVA        FA
  0 B      5.1787     5.0000    -0.1787     3.5473     3.5473     0.0000
  1 B      5.1279     5.0000    -0.1279     3.5650     3.5650    -0.0000
  2 B      4.9312     5.0000     0.0688     3.4078     3.4078     0.0000
  3 B      5.1293     5.0000    -0.1293     3.5676     3.5676    -0.0000
  4 B      5.0020     5.0000    -0.0020     3.9753     3.9753     0.0000
  5 B      5.0015     5.0000    -0.0015     3.9727     3.9727     0.0000
  6 B      4.9794     5.0000     0.0206     3.7100     3.7100    -0.0000
  7 B      4.6859     5.0000     0.3141     3.8969     3.8969    -0.0000
  8 B      5.1813     5.0000    -0.1813     3.5471     3.5471     0.0000
  9 B      4.8045     5.0000     0.1955     3.8416     3.8416     0.0000
 10 B      4.9769     5.0000     0.0231     3.7079     3.7079    -0.0000
 11 B      5.0013     5.0000    -0.0013     4.6436     4.6436     0.0000

  Mayer bond orders larger than 0.100000
B(  0-B ,  1-B ) :   1.0135 B(  0-B ,  2-B ) :   0.4111 B(  0-B ,  4-B ) :   0.1291 
B(  0-B ,  5-B ) :   0.1461 B(  0-B ,  6-B ) :   0.3170 B(  0-B ,  7-B ) :   0.9963 
B(  0-B ,  8-B ) :   0.2092 B(  0-B ,  9-B ) :   0.1552 B(  0-B , 11-B ) :   0.1664 
B(  1-B ,  2-B ) :   0.5894 B(  1-B ,  5-B ) :   0.9453 B(  1-B ,  6-B ) :   0.4799 
B(  1-B ,  9-B ) :   0.1245 B(  1-B , 11-B ) :   0.1978 B(  2-B ,  3-B ) :   0.5907 
B(  2-B ,  4-B ) :   0.4606 B(  2-B ,  5-B ) :   0.4587 B(  2-B ,  6-B ) :   0.1562 
B(  2-B ,  7-B ) :   0.1466 B(  2-B ,  8-B ) :   0.4109 B(  2-B , 10-B ) :   0.1566 
B(  3-B ,  4-B ) :   0.9445 B(  3-B ,  8-B ) :   1.0120 B(  3-B ,  9-B ) :   0.1257 
B(  3-B , 10-B ) :   0.4799 B(  3-B , 11-B ) :   0.1975 B(  4-B ,  5-B ) :   0.7592 
B(  4-B ,  8-B ) :   0.1482 B(  4-B ,  9-B ) :   0.4852 B(  4-B , 10-B ) :   0.5483 
B(  4-B , 11-B ) :   0.3012 B(  5-B ,  6-B ) :   0.5474 B(  5-B ,  8-B ) :   0.1294 
B(  5-B ,  9-B ) :   0.4865 B(  5-B , 11-B ) :   0.2996 B(  6-B ,  7-B ) :   0.1978 
B(  6-B ,  9-B ) :   0.7675 B(  6-B , 10-B ) :   0.2660 B(  6-B , 11-B ) :   0.8184 
B(  7-B ,  8-B ) :   0.9946 B(  7-B , 10-B ) :   0.1920 B(  7-B , 11-B ) :   1.0681 
B(  8-B ,  9-B ) :   0.1547 B(  8-B , 10-B ) :   0.3161 B(  8-B , 11-B ) :   0.1692 
B(  9-B , 10-B ) :   0.7662 B(  9-B , 11-B ) :   0.6417 B( 10-B , 11-B ) :   0.8238 


-------
TIMINGS
-------

Total SCF time: 0 days 0 hours 0 min 5 sec 

Total time                  ....       5.359 sec
Sum of individual times     ....       4.736 sec  ( 88.4%)

SCF preparation             ....       0.646 sec  ( 12.0%)
Fock matrix formation       ....       3.519 sec  ( 65.7%)
  Startup                   ....       0.017 sec  (  0.5% of F)
  Split-RI-J                ....       1.151 sec  ( 32.7% of F)
  XC integration            ....       2.669 sec  ( 75.8% of F)
    XC Preparation          ....       0.000 sec  (  0.0% of XC)
    Basis function eval.    ....       0.609 sec  ( 22.8% of XC)
    Density eval.           ....       0.514 sec  ( 19.3% of XC)
    XC-Functional eval.     ....       0.059 sec  (  2.2% of XC)
    XC-Potential eval.      ....       0.583 sec  ( 21.8% of XC)
Diagonalization             ....       0.000 sec  (  0.0%)
Density matrix formation    ....       0.051 sec  (  1.0%)
Total Energy calculation    ....       0.063 sec  (  1.2%)
Population analysis         ....       0.194 sec  (  3.6%)
Orbital Transformation      ....       0.015 sec  (  0.3%)
Orbital Orthonormalization  ....       0.000 sec  (  0.0%)
DIIS solution               ....       0.023 sec  (  0.4%)
SOSCF solution              ....       0.225 sec  (  4.2%)
Finished LeanSCF after   5.6 sec

Maximum memory used throughout the entire LEANSCF-calculation: 13.6 MB


-------------------------------------------------------------------------------
                          DFT DISPERSION CORRECTION                            
                                                                               
                              DFTD3 V3.1  Rev 1                                
                          USING Becke-Johnson damping                          
-------------------------------------------------------------------------------
The BP86 functional is recognized
Active option DFTDOPT                   ...         4   

molecular C6(AA) [au] = 4154.255362 


            DFT-D V3
 parameters
 s6 scaling factor         :     1.0000 
 a1 scaling factor         :     0.3946 
 s8 scaling factor         :     3.2822 
 a2 scaling factor         :     4.8516 
 ad hoc parameters k1-k3   :    16.0000     1.3333    -4.0000 

 Edisp/kcal,au: -23.963459238492  -0.038188199020 
 E6   /kcal   :  -6.819098390 
 E8   /kcal   : -17.144360848 
 % E8         :  71.543764520 

-------------------------   ----------------
Dispersion correction           -0.038188199
-------------------------   ----------------


-------------------------   --------------------
FINAL SINGLE POINT ENERGY      -297.659727190500
-------------------------   --------------------

                                *** OPTIMIZATION RUN DONE ***



           ************************************************************
           *        Program running with 8 parallel MPI-processes     *
           *              working on a common directory               *
           ************************************************************

------------------------------------------------------------------------------
                              ORCA PROPERTY CALCULATIONS
------------------------------------------------------------------------------

GBWName                                 ... cuboctahedron_nn2.00.gbw
Number of atoms                         ...     12
Number of basis functions               ...    168
Max core memory                         ...   2500 MB

Electric properties:
Dipole moment                           ... YES
Quadrupole moment                       ...  NO
Static polarizability (Dipole/Dipole)   ...  NO
Static polarizability (Dipole/Quad.)    ...  NO
Static polarizability (Quad./Quad.)     ...  NO
Static polarizability (Velocity)        ...  NO
Static hyperpolarizability              ...  NO

Atomic electric properties:
Dipole moment                           ...  NO
Quadrupole moment                       ...  NO
Static polarizability                   ...  NO

Choice of electric origin               ... Center of mass
Position of electric origin             ...    -0.000000     0.000000    -0.000000

General magnetic properties:
Magnetizability                         ...  NO

EPR properties:
g-Tensor (aka g-matrix)                 ...  NO
Zero-Field splitting spin-orbit         ...  NO
Zero-field splitting spin-spin          ...  NO
Hyperfine couplings                     ...  NO (   0 nuclei)
Quadrupole couplings                    ...  NO (   0 nuclei)
Contact density                         ...  NO (   0 nuclei)

NMR properties:
Chemical shifts                         ...  NO (   0 nuclei)
Spin-rotation constants                 ...  NO (   0 nuclei)
Spin-spin couplings                     ...  NO (   0 nuclei,    0 pairs)

Choice of magnetic origin               ... GIAO
Position of magnetic origin             ...     0.000000     0.000000     0.000000

Properties with geometric perturbations:
SCF Hessian                             ...  NO
IR spectrum                             ...  NO
VCD spectrum                            ...  NO
X-ray spectroscopy properties:
SCF XES/XAS/RIXS spectra                ...  NO

SCF SOC stabilization energy            ...  NO
Diagonal Born-Oppenheimer correction    ...  NO

-------------
DIPOLE MOMENT
-------------

Method             : SCF
Type of density    : Electron Density
Multiplicity       :   1
Irrep              :   0
Energy             :  -297.6215389914805201 Eh
Basis              : AO
                                X                 Y                 Z
Electronic contribution:     -0.082956876       0.575558740       0.340286009
Nuclear contribution   :     -0.000000000       0.000000000      -0.000000000
                        -----------------------------------------
Total Dipole Moment    :     -0.082956876       0.575558740       0.340286009
                        -----------------------------------------
Magnitude (a.u.)       :      0.673753867
Magnitude (Debye)      :      1.712546233



--------------------
Rotational spectrum 
--------------------
 
Rotational constants in cm-1:             0.074577             0.068275             0.059890 
Rotational constants in MHz :          2235.755242          2046.821276          1795.467370 

Dipole components along the rotational axes: 
x,y,z [a.u.] :     0.002193     0.462247    -0.490171 
x,y,z [Debye]:     0.005575     1.174937    -1.245916 

 

Dipole moment calculation done in   0.1 sec 

Maximum memory used throughout the entire PROP-calculation: 10.7 MB

--------------------------------
SUGGESTED CITATIONS FOR THIS RUN
--------------------------------

Below you find a list of papers that are relevant to this ORCA run
We neither can nor want to force you to cite these papers, but we appreciate if you do
You receive ORCA, which is the product of decades of hard work by many enthusiastic individuals, for free
The only thing we kindly ask in return is that you cite our papers,
We deeply appreciate it, if you show your appreciation for ORCA by not just citing the generic ORCA reference.

Please note that relegating all ORCA citations to the supporting information does *not* help us.
SI sections are not indexed - citations you put there will not count into any citation statistics
But we need these citations in order to attract the funding resources that allow us to do what we are doing

Therefore, if you are a happy ORCA user, please consider citing a few of the papers listed below in the main body of your paper

In addition to the list printed below, the program has created the file cuboctahedron_nn2.00.bibtex that contains the list in bibtex format
You can import this file easily into all common literature databanks and citation aid programs

It goes without saying that in many instances, there are alternative algorithms to achieve similar
results as the ones you have gotten from ORCA. It is, of course, also the case that in some instances
ORCA just re-implements algorithms worked out by others. We are fully aware of that and we are also
fully appreciative of our colleagues work. Hence this citation list should not be read as indicating
that the listed papers, which are focused on our own work, are the only ones worth citing. It simply
meant to make it easier for users to cite ORCA specific papers. It is not a substitute for doing your
own literature research and citing the relevant literature in a scientifically appropriate manner.

List of essential papers. We consider these as the minimum necessary citations

  1. Neese, F.
     Software update: the ORCA program system, version 6.0
     WIRES Comput. Molec. Sci. 2025 15(1), e70019
     doi.org/10.1002/wcms.70019

List of papers to cite with high priority. The work reported in these papers was absolutely
necessary for this run to complete.
Our perspective: the developers of density functionals and basis sets usually get cited in chemistry papers
Good! But without the algorithms to do something with them, the functionals or basis sets would not do anything.
Hence, in our opinion, the algorithm design and method developments papers are equally worthy of getting cited

  1. Neese, F.
     An improvement of the resolution of the identity approximation for the formation of the Coulomb matrix
     J. Comp. Chem. 2003 24(14), 1740-1747
     doi.org/10.1002/jcc.10318
  2. Grimme, S.; Antony, J.; Ehrlich, S.; Krieg, H.
     A consistent and accurate ab initio parametrization of density functional dispersion correction (DFT-D) for the 94 elements H-Pu
     J. Chem. Phys. 2010 132 , 154104
     doi.org/10.1063/1.3382344
  3. Grimme, S.; Ehrlich, S.; Goerigk, L.
     Effect of the damping function in dispersion corrected density functional theory
     J. Comput. Chem. 2011 32(7), 1456-1465
     doi.org/10.1002/jcc.21759
  4. Helmich-Paris, B.
     A trust-region augmented Hessian implementation for restricted and unrestricted Hartree–Fock and Kohn–Sham methods
     J. Chem. Phys. 2021 154 , 164104
     doi.org/10.1063/5.0040798
  5. Neese, F.
     The SHARK Integral Generation and Digestion System
     J. Comp. Chem. 2022 44(3), 381
     doi.org/10.1002/jcc.26942

List of suggested additional citations. These are papers that are important in the 'surrounding' of 
of this run, or papers that preceded the highly important papers. If you like your results we are grateful for a citation.

  1. Neese, F.
     The ORCA program system
     WIRES Comput. Molec. Sci. 2012 2(1), 73-78
     doi.org/10.1002/wcms.81
  2. Neese, F.
     Software update: the ORCA program system, version 4.0
     WIRES Comput. Molec. Sci. 2018 8(1), 1-6
     doi.org/10.1002/wcms.1327
  3. Neese, F.; Wennmohs, F.; Becker, U.; Riplinger, C.
     The ORCA quantum chemistry program package
     J. Chem. Phys. 2020 152(22), 224108
     doi.org/10.1063/5.0004608
  4. Neese, F.
     Software update: The ORCA program system—Version 5.0
     WIRES Comput. Molec. Sci. 2022 12(1), e1606
     doi.org/10.1002/wcms.1606

List of optional additional citations

  1. Neese, F.
     Approximate second-order SCF convergence for spin unrestricted wavefunctions
     Chem. Phys. Lett. 2000 325(1-3), 93-98
     doi.org/10.1016/s0009-2614(00)00662-x

Timings for individual modules:

Sum of individual times          ...      908.003 sec (=  15.133 min)
Startup calculation              ...      115.473 sec (=   1.925 min)  12.7 %
SCF iterations                   ...      619.226 sec (=  10.320 min)  68.2 %
Property calculations            ...        0.800 sec (=   0.013 min)   0.1 %
SCF Gradient evaluation          ...      171.091 sec (=   2.852 min)  18.8 %
Geometry relaxation              ...        1.413 sec (=   0.024 min)   0.2 %
                             ****ORCA TERMINATED NORMALLY****
TOTAL RUN TIME: 0 days 0 hours 16 minutes 3 seconds 364 msec
