
                                 *****************
                                 * O   R   C   A *
                                 *****************

                                            #,                                       
                                            ###                                      
                                            ####                                     
                                            #####                                    
                                            ######                                   
                                           ########,                                 
                                     ,,################,,,,,                         
                               ,,#################################,,                 
                          ,,##########################################,,             
                       ,#########################################, ''#####,          
                    ,#############################################,,   '####,        
                  ,##################################################,,,,####,       
                ,###########''''           ''''###############################       
              ,#####''   ,,,,##########,,,,          '''####'''          '####       
            ,##' ,,,,###########################,,,                        '##       
           ' ,,###''''                  '''############,,,                           
         ,,##''                                '''############,,,,        ,,,,,,###''
      ,#''                                            '''#######################'''  
     '                                                          ''''####''''         
             ,#######,   #######,   ,#######,      ##                                
            ,#'     '#,  ##    ##  ,#'     '#,    #''#        ,####,    ,#,          
            ##       ##  ##   ,#'  ##            #'  '#       #'       ,# #          
            ##       ##  #######   ##           ,######,      #####,      #          
            '#,     ,#'  ##    ##  '#,     ,#' ,#      #,     #,   #      #          
             '#######'   ##     ##  '#######'  #'      '#     '####' #    #          



                #########################################################
                #                        -***-                          #
                #          Department of theory and spectroscopy        #
                #                                                       #
                #                      Frank Neese                      #
                #                                                       #
                #     Directorship, Architecture, Infrastructure        #
                #                    SHARK, DRIVERS                     #
                #        Core code/Algorithms in most modules           #
                #                                                       #
                #        Max Planck Institute fuer Kohlenforschung      #
                #                Kaiser Wilhelm Platz 1                 #
                #                 D-45470 Muelheim/Ruhr                 #
                #                      Germany                          #
                #                                                       #
                #                  All rights reserved                  #
                #                        -***-                          #
                #########################################################


                         Program Version 6.1.1  -  RELEASE   -
                                (GIT: $487d211c$)
                          ($2025-11-21 10:33:24 +0100$)
                                                                         
                                  - NO-DMRG VERSION -                    
                                                                         


 With contributions from (in alphabetic order):
[Max-Planck-Institut fuer Kohlenforschung]                               
  Daniel Aravena         : Magnetic Suceptibility                        
  Michael Atanasov       : Ab Initio Ligand Field Theory (pilot matlab implementation)
  Alexander A. Auer      : GIAO ZORA, VPT2 properties, NMR spectrum      
  Ute Becker             : All parallelization in ORCA, NUMFREQ, NUMCALC 
  Giovanni Bistoni       : ED, misc. LED, open-shell LED, HFLD           
  Dmytro Bykov           : pre 5.0 version of the SCF Hessian            
  Marcos Casanova-Páez   : Triplet and SCS-CIS(D). UHF-(DLPNO)-IP/EA/STEOM-CCSD. UHF-CVS-IP/STEOM-CCSD   
  Vijay G. Chilkuri      : MRCI spin determinant printing, contributions to CSF-ICE 
  Pauline Colinet        : FMM embedding                                 
  Dipayan Datta          : RHF DLPNO-CCSD density                        
  Achintya Kumar Dutta   : EOM-CC, STEOM-CC                              
  Nicolas Foglia         : Exact transition moments, OPA infrastructure, MCD improvements    
  Dmitry Ganyushin       : Spin-Orbit,Spin-Spin,Magnetic field MRCI      
  Miquel Garcia-Rates    : C-PCM and meta-GGA Hessian, CCSD/C-PCM, Gaussian charge scheme 
  Tiago L. C. Gouveia    : GS-ROHF, GS-ROCIS                             
  Yang Guo               : DLPNO-NEVPT2, F12-NEVPT2, CIM, IAO-localization        
  Andreas Hansen         : Spin unrestricted coupled pair/coupled cluster methods 
  Ingolf Harden          : AUTO-CI MPn and infrastructure                
  Benjamin Helmich-Paris : MC-RPA, TRAH-(SCF,CASSCF), AVAS, COSX integrals, SCF dyn. polar., MC-PDFT, srDFT 
  Lee Huntington         : MR-EOM, pCC                                   
  Robert Izsak           : Overlap fitted RIJCOSX, COSX-SCS-MP3, EOM     
  Riya Kayal             : Wick's Theorem for AUTO-CI, AUTO-CI UHF-CCSDT 
  Emily Kempfer          : AUTO-CI RHF CISDT and CCSDT, approximate NEVPT4
  Christian Kollmar      : KDIIS, OOCD, Brueckner-CCSD(T), CCSD density, CASPT2, CASPT2-K, improved NEVPT2 
  Axel Koslowski         : Symmetry handling                             
  Simone Kossmann        : meta-GGA functionals, TD-DFT gradient, OOMP2, (MP2 Hessian; deprecated post 5.0) 
  Lucas Lang             : DCDCAS, Hyperfine gauge corrections, ICE-SOC+SSC
  Marvin Lechner         : AUTO-CI (C++ implementation), FIC-MRCC        
  Spencer Leger          : CASSCF response                               
  Dagmar Lenk            : GEPOL surface, SMD, ORCA-2-JSON               
  Dimitrios Liakos       : Extrapolation schemes; Compound Job, Property file
  Dimitrios Manganas     : Further ROCIS development; embedding schemes. LFT, Crystal Embedding 
  Dimitrios Pantazis     : SARC Basis sets                               
  Anastasios Papadopoulos: AUTO-CI, single reference methods and gradients 
  Taras Petrenko         : pre 6.0 DFT Hessian and TD-DFT gradient,  ECA, NRVS 
  Petra Pikulova         : Analytic Raman intensities                    
  Peter Pinski           : DLPNO-MP2, DLPNO-MP2 Gradient                 
  Shashank Vittal Rao    : ES-AILFT, MagRelax                            
  Christoph Reimann      : Effective Core Potentials                     
  Marius Retegan         : Local ZFS, SOC                                
  Christoph Riplinger    : Optimizer, TS searches, QM/MM, DLPNO-CCSD(T), (RO)-DLPNO pert. Triples 
  Michael Roemelt        : Original ROCIS implementation, recursive CI coupling coefficients
  Masaaki Saitow         : Open-shell DLPNO-CCSD energy and density      
  Barbara Sandhoefer     : DKH picture change effects                    
  Yorick L. A. Schmerwitz: GMF and freeze-and-release deltaSCF, NEB S-IDPP initial path                    
  Kantharuban Sivalingam : CASSCF convergence/infrastructure, NEVPT2, NEVPT3, NEVPT4(SD), FIC-MRCI and CEPA variants
  Bernardo de Souza      : ESD, SOC TD-DFT                               
  Georgi L. Stoychev     : AutoAux, RI-MP2 NMR, DLPNO-MP2 response, X2C  
  Van Anh Tran           : RI-MP2 g-tensors                              
  Willem Van den Heuvel  : Paramagnetic NMR                              
  Zikuan Wang            : NOTCH, Electric field optimization            
  Frank Wennmohs         : Technical directorship and infrastructure     
  Hang Xu                : AUTO-CI-Response properties                   
                                                                         
[FACCTs GmbH]                                                            
  Markus Bursch, Nicolas Foglia, Miquel Garcia-Rates, Ingolf Harden, Hagen Neugebauer, Anastasios Papadopoulos, 
  Christoph Riplinger, Bernardo de Souza, Georgi L. Stoychev                                                    
                                                                 
  APM, various basis sets, CI-OPT, improved COSX, DLPNO-Multilevel,           
  DOCKER, DRACO, updates on ESD, Fragmentator, GOAT, IRC, LR-CPCM, L-BFGS, MBIS, meta-GGA TD-DFT gradient, ML-optimized integration grids, 
  MM, NACMEs, nearIR, NEB, NEB-TS, NL-DFT gradient (VV10), 2- and 3-layer-ONIOM, interface openCOSMO-RS, QMMM,   
  Crystal-QMMM, RESP, rigid body optimization, SF, symmetry and pop. for TD-DFT, various functionals, SOLVATOR                                   
                                                                         
[Other institutions]                                                     
  V. Asgeirsson          : NEB                                           
  Christoph Bannwarth    : sTDA-DFT, sTD-DFT, PBEh-3c, B97-3c, D3        
  Giovanni Bistoni       : ETS/NOCV, ADLD/ADEX, COVALED                  
  Martin Brehm           : Molecular dynamics                            
  Ronald Cardenas        : ETS/NOCV                                      
  Martina Colucci        : COVALED                                       
  Sebastian Ehlert       : rSCAN, r2SCAN, r2SCAN-3c, D4, dhf basis sets  
  Marvin Friede          : D4 for Fr, Ra, Ac-Lr                          
  Lars Goerigk           : TD-DFT with DH, B97 family of functionals     
  Stefan Grimme          : VdW corrections, initial TS optimization, DFT functionals, gCP, sTDA/sTD-DF 
  Waldemar Hujo          : DFT-NL                                        
  H. Jonsson             : NEB                                           
  Holger Kruse           : gCP                                           
  Marcel Mueller         : wB97X-3c, vDZP basis set                      
  Hagen Neugebauer       : wr2SCAN, Native XTB                           
  Gianluca Regni         : ADLD/ADEX                                     
  Tobias Risthaus        : pre 6.0 range-separated hybrid DFT and stability analysis
  Lukas Wittmann         : regularized MP2, r2SCAN double-hybrids, wr2SCAN        
                                                                         
We gratefully acknowledge several colleagues who have allowed us to      
interface, adapt or use parts of their codes:                            
  Ed Valeev, F. Pavosevic, A. Kumar             : LibInt (2-el integral package), F12 methods 
  Garnet Chan, S. Sharma, J. Yang, R. Olivares  : DMRG                   
  Ulf Ekstrom                                   : XCFun DFT Library      
  Mihaly Kallay                                 : mrcc  (arbitrary order and MRCC methods)
  Frank Weinhold                                : gennbo (NPA and NBO analysis)           
  Simon Mueller                                 : openCOSMO-RS                            
  Christopher J. Cramer and Donald G. Truhlar   : smd solvation model                     
  S Lehtola, MJT Oliveira, MAL Marques          : LibXC Library                           
  Liviu Ungur et al                             : ANISO software                          


 Your calculation uses the libint2 library for the computation of 2-el integrals
 For citations please refer to: http://libint.valeyev.net

 Your ORCA version has been built with support for libXC version: 7.0.0
 For citations please refer to: https://libxc.gitlab.io

 This ORCA versions uses:
   CBLAS   interface :  Fast vector & matrix operations
   LAPACKE interface :  Fast linear algebra routines
   SCALAPACK package :  Parallel linear algebra routines
   Shared memory     :  Shared parallel matrices
   BLAS/LAPACK       :  OpenBLAS 0.3.29  USE64BITINT DYNAMIC_ARCH NO_AFFINITY Zen SINGLE_THREADED
        Core in use  :  Zen
   Copyright (c) 2011-2014, The OpenBLAS Project


  ***********************************
  * Starting time: Fri Apr 24 10:22:47 2026
  * Host name:     vmi3233575
  * Process ID:    1814936
  * Working dir.:  /root/b12_scan/jobs_refined/rank05_quasi_planar_nn2.50
  ***********************************

NOTE: MaxCore=2500 MB was set to SCF,MP2,MDCI,CIPSI,MRCI,RASCI and CIS
      => If you want to overwrite this, your respective input block should be placed after the MaxCore statement
Your calculation utilizes the atom-pairwise dispersion correction
with the Becke-Johnson damping scheme (D3BJ)


================================================================================

----- Orbital basis set information -----
Your calculation utilizes the basis: def2-TZVP
   F. Weigend and R. Ahlrichs, Phys. Chem. Chem. Phys. 7, 3297 (2005).

----- AuxJ basis set information -----
Your calculation utilizes the auxiliary basis: def2/J
   H-Rn: F. Weigend, Phys. Chem. Chem. Phys. 8, 1057 (2006).
   Fr-Lr: K. Eichkorn, F. Weigend, O. Treutler, R. Ahlrichs; Theor. Chem. Acc. 97, 119 (1997).

================================================================================
                                        WARNINGS
                       Please study these warnings very carefully!
================================================================================


WARNING: Geometry Optimization
  ===> : Switching off AutoStart
         For restart on a previous wavefunction, please use MOREAD

================================================================================
                                       INPUT FILE
================================================================================
NAME = rank05_quasi_planar_nn2.50.inp
|  1> ! B3LYP def2-TZVP def2/J RIJCOSX Opt TightSCF D3BJ Freq
|  2> 
|  3> %pal nprocs 8 end
|  4> %maxcore 2500
|  5> 
|  6> %geom
|  7>   MaxIter 500
|  8> end
|  9> 
| 10> * xyz 0 1
| 11>   B           0.95241269724601     -0.23462863088092     -0.37981436527942
| 12>   B          -0.27303114472682      0.94178959588057     -0.37920443859878
| 13>   B          -0.67896634461912     -0.70754143878905     -0.37892133737620
| 14>   B           2.45306383156893      0.21193823299371      0.16910599370166
| 15>   B           1.41659778774272      1.47615101459208      0.03987762495380
| 16>   B           0.11092712071807      2.45989118601698      0.16879317084809
| 17>   B          -1.41005864824736      2.01853684261794      0.16878393989058
| 18>   B          -1.98642847761616      0.48862563610281      0.04041822516917
| 19>   B          -2.18591632358440     -1.13396267122168      0.16912521582025
| 20>   B          -1.04316262546313     -2.23056292688420      0.16977066848885
| 21>   B           0.56970473132940     -1.96417414693299      0.04204837983511
| 22>   B           2.07485737565187     -1.32606270349525      0.17001692254688
| 23> *
| 24> 
| 25>                          ****END OF INPUT****
================================================================================

                       *****************************
                       * Geometry Optimization Run *
                       *****************************

Geometry optimization settings:
Update method            Update   .... BFGS
Choice of coordinates    CoordSys .... (2022) Redundant Internals
Initial Hessian          InHess   .... Almloef's Model
Max. no of cycles        MaxIter  .... 500

Convergence Tolerances:
Energy Change            TolE     ....  5.0000e-06 Eh
Max. Gradient            TolMAXG  ....  3.0000e-04 Eh/bohr
RMS Gradient             TolRMSG  ....  1.0000e-04 Eh/bohr
Max. Displacement        TolMAXD  ....  4.0000e-03 bohr
RMS Displacement         TolRMSD  ....  2.0000e-03 bohr
Strict Convergence                .... False

------------------------------------------------------------------------------
                        ORCA OPTIMIZATION COORDINATE SETUP
------------------------------------------------------------------------------

The optimization will be done in redundant internal coordinates (2022)
Making redundant internal coordinates   ...  (2022 redundants) done
Evaluating the initial hessian          ...  (Almloef) done
Evaluating the coordinates              ...  done
Calculating the B-matrix                .... done
Calculating the G-matrix                .... done
The number of degrees of freedom        ....  264

    -----------------------------------------------------------------
                    Redundant Internal Coordinates


    -----------------------------------------------------------------
         Definition                    Initial Value    Approx d2E/dq
    -----------------------------------------------------------------
      1. B(B   1,B   0)                  1.6987         0.269662   
      2. B(B   2,B   1)                  1.6986         0.269836   
      3. B(B   2,B   0)                  1.6985         0.269845   
      4. B(B   3,B   0)                  1.6591         0.311892   
      5. B(B   4,B   1)                  1.8210         0.172088   
      6. B(B   4,B   0)                  1.8216         0.171679   
      7. B(B   4,B   3)                  1.6399         0.334743   
      8. B(B   5,B   4)                  1.6399         0.334764   
      9. B(B   5,B   1)                  1.6590         0.312007   
     10. B(B   6,B   5)                  1.5837         0.411428   
     11. B(B   6,B   1)                  1.6591         0.311955   
     12. B(B   7,B   6)                  1.6399         0.334700   
     13. B(B   7,B   2)                  1.8210         0.172071   
     14. B(B   7,B   1)                  1.8213         0.171888   
     15. B(B   8,B   2)                  1.6592         0.311755   
     16. B(B   8,B   7)                  1.6399         0.334758   
     17. B(B   9,B   8)                  1.5838         0.411320   
     18. B(B   9,B   2)                  1.6593         0.311683   
     19. B(B  10,B   9)                  1.6397         0.334960   
     20. B(B  10,B   2)                  1.8209         0.172174   
     21. B(B  10,B   0)                  1.8209         0.172133   
     22. B(B  11,B  10)                  1.6398         0.334799   
     23. B(B  11,B   3)                  1.5838         0.411287   
     24. B(B  11,B   0)                  1.6593         0.311639   
     25. A(B   3,B   0,B   4)           55.9801         0.319472   
     26. A(B   2,B   0,B  11)          117.7998         0.344265   
     27. A(B   3,B   0,B  10)          111.6601         0.319610   
     28. A(B   1,B   0,B  11)          160.6251         0.344225   
     29. A(B   4,B   0,B  11)          111.6546         0.319430   
     30. A(B   3,B   0,B  11)           57.0151         0.352770   
     31. A(B   4,B   0,B  10)          153.1502         0.290461   
     32. A(B   1,B   0,B   2)           59.9968         0.336041   
     33. A(B  10,B   0,B  11)           55.9898         0.319567   
     34. A(B   1,B   0,B   4)           62.1833         0.312007   
     35. A(B   2,B   0,B   3)          160.6454         0.344312   
     36. A(B   1,B   0,B   3)          117.7728         0.344272   
     37. A(B   2,B   0,B   4)          120.4043         0.312041   
     38. A(B   2,B   0,B  10)           62.1969         0.312174   
     39. A(B   1,B   0,B  10)          120.4029         0.312140   
     40. A(B   0,B   1,B   7)          120.4257         0.312068   
     41. A(B   6,B   1,B   7)           55.9889         0.319546   
     42. A(B   2,B   1,B   6)          117.7980         0.344321   
     43. A(B   5,B   1,B   6)           57.0185         0.352852   
     44. A(B   5,B   1,B   7)          111.6723         0.319555   
     45. A(B   0,B   1,B   6)          160.7299         0.344284   
     46. A(B   2,B   1,B   7)           62.1946         0.312100   
     47. A(B   2,B   1,B   4)          120.4411         0.312159   
     48. A(B   0,B   1,B   5)          117.8311         0.344294   
     49. A(B   4,B   1,B   7)          153.2367         0.290505   
     50. A(B   4,B   1,B   5)           55.9941         0.319616   
     51. A(B   0,B   1,B   2)           59.9962         0.336039   
     52. A(B   0,B   1,B   4)           62.2220         0.312127   
     53. A(B   4,B   1,B   6)          111.6810         0.319607   
     54. A(B   2,B   1,B   5)          160.6993         0.344331   
     55. A(B   8,B   2,B  10)          111.6597         0.319600   
     56. A(B   7,B   2,B  10)          153.1828         0.290576   
     57. A(B   1,B   2,B  10)          120.4166         0.312185   
     58. A(B   0,B   2,B  10)           62.2008         0.312186   
     59. A(B   8,B   2,B   9)           57.0127         0.352752   
     60. A(B   0,B   2,B   1)           60.0070         0.336077   
     61. A(B   7,B   2,B   9)          111.6651         0.319556   
     62. A(B   1,B   2,B   9)          160.6962         0.344271   
     63. A(B   0,B   2,B   9)          117.8097         0.344273   
     64. A(B   7,B   2,B   8)           55.9905         0.319568   
     65. A(B   1,B   2,B   8)          117.8176         0.344284   
     66. A(B   0,B   2,B   8)          160.7398         0.344286   
     67. A(B   9,B   2,B  10)           55.9868         0.319588   
     68. A(B   1,B   2,B   7)           62.2119         0.312154   
     69. A(B   0,B   2,B   7)          120.4527         0.312156   
     70. A(B   0,B   3,B   4)           67.0304         0.357074   
     71. A(B   0,B   3,B  11)           61.4995         0.369865   
     72. A(B   4,B   3,B  11)          126.7079         0.374396   
     73. A(B   1,B   4,B   3)          112.2320         0.323316   
     74. A(B   0,B   4,B   3)           56.9895         0.323190   
     75. A(B   0,B   4,B   1)           55.5947         0.290449   
     76. A(B   3,B   4,B   5)          163.6396         0.361403   
     77. A(B   1,B   4,B   5)           56.9997         0.323320   
     78. A(B   0,B   4,B   5)          112.2476         0.323194   
     79. A(B   4,B   5,B   6)          126.6901         0.374422   
     80. A(B   1,B   5,B   6)           61.4922         0.369910   
     81. A(B   1,B   5,B   4)           67.0062         0.357100   
     82. A(B   1,B   6,B   5)           61.4893         0.369899   
     83. A(B   5,B   6,B   7)          126.6931         0.374410   
     84. A(B   1,B   6,B   7)           67.0171         0.357079   
     85. A(B   6,B   7,B   8)          163.6799         0.361394   
     86. A(B   2,B   7,B   8)           57.0074         0.323313   
     87. A(B   1,B   7,B   8)          112.2541         0.323257   
     88. A(B   2,B   7,B   6)          112.2399         0.323304   
     89. A(B   1,B   7,B   6)           56.9939         0.323248   
     90. A(B   1,B   7,B   2)           55.5935         0.290500   
     91. A(B   7,B   8,B   9)          126.6804         0.374404   
     92. A(B   2,B   8,B   9)           61.4956         0.369842   
     93. A(B   2,B   8,B   7)           67.0021         0.357050   
     94. A(B   2,B   9,B   8)           61.4916         0.369827   
     95. A(B   8,B   9,B  10)          126.6697         0.374443   
     96. A(B   2,B   9,B  10)           66.9975         0.357073   
     97. A(B   9,B  10,B  11)          163.7378         0.361449   
     98. A(B   2,B  10,B  11)          112.2673         0.323352   
     99. A(B   0,B  10,B  11)           57.0138         0.323339   
    100. A(B   2,B  10,B   9)           57.0157         0.323377   
    101. A(B   0,B  10,B   9)          112.2772         0.323364   
    102. A(B   0,B  10,B   2)           55.6023         0.290593   
    103. A(B   3,B  11,B  10)          126.6562         0.374406   
    104. A(B   0,B  11,B  10)           66.9964         0.357035   
    105. A(B   0,B  11,B   3)           61.4854         0.369813   
    106. D(B   4,B   1,B   0,B  11)     75.9552         0.010000   
    107. D(B   4,B   1,B   0,B  10)    149.3176         0.010000   
    108. D(B   4,B   1,B   0,B   3)      6.8815         0.010000   
    109. D(B   2,B   1,B   0,B  10)    -15.5714         0.010000   
    110. D(B   2,B   1,B   0,B   3)   -158.0075         0.010000   
    111. D(B   5,B   1,B   0,B   2)    158.0560         0.010000   
    112. D(B   4,B   1,B   0,B   2)    164.8890         0.010000   
    113. D(B   2,B   1,B   0,B   4)   -164.8890         0.010000   
    114. D(B   5,B   1,B   0,B   3)      0.0485         0.010000   
    115. D(B   2,B   1,B   0,B  11)    -88.9338         0.010000   
    116. D(B   7,B   2,B   0,B   1)    -15.4687         0.010000   
    117. D(B   0,B   2,B   1,B   7)   -164.9365         0.010000   
    118. D(B   7,B   2,B   1,B   6)      6.8374         0.010000   
    119. D(B   8,B   2,B   1,B   0)    158.1057         0.010000   
    120. D(B   0,B   2,B   1,B   6)   -158.0991         0.010000   
    121. D(B   8,B   2,B   1,B   4)    142.5886         0.010000   
    122. D(B   0,B   2,B   1,B   5)    -88.9820         0.010000   
    123. D(B   7,B   2,B   1,B   0)    164.9365         0.010000   
    124. D(B   0,B   2,B   1,B   4)    -15.5171         0.010000   
    125. D(B   1,B   2,B   0,B   4)     15.5055         0.010000   
    126. D(B   1,B   2,B   0,B  11)    157.9776         0.010000   
    127. D(B   1,B   2,B   0,B  10)    164.8266         0.010000   
    128. D(B   1,B   2,B   0,B   3)     88.8376         0.010000   
    129. D(B   7,B   2,B   0,B  10)    149.3579         0.010000   
    130. D(B   7,B   2,B   0,B  11)    142.5089         0.010000   
    131. D(B   7,B   2,B   1,B   5)     75.9545         0.010000   
    132. D(B   7,B   2,B   0,B   3)     73.3689         0.010000   
    133. D(B   7,B   2,B   0,B   4)      0.0368         0.010000   
    134. D(B   8,B   2,B   0,B   1)    -88.9457         0.010000   
    135. D(B   7,B   2,B   1,B   4)    149.4194         0.010000   
    136. D(B   4,B   3,B   0,B   1)     -7.3456         0.010000   
    137. D(B  11,B   3,B   0,B   4)    165.6663         0.010000   
    138. D(B  11,B   3,B   0,B   2)     80.2107         0.010000   
    139. D(B  11,B   3,B   0,B   1)    158.3208         0.010000   
    140. D(B   4,B   3,B   0,B  10)   -152.8905         0.010000   
    141. D(B   4,B   3,B   0,B  11)   -165.6663         0.010000   
    142. D(B   4,B   3,B   0,B   2)    -85.4556         0.010000   
    143. D(B   5,B   4,B   3,B  11)     36.6522         0.010000   
    144. D(B   5,B   4,B   3,B   0)     52.3988         0.010000   
    145. D(B   1,B   4,B   3,B  11)     -9.2004         0.010000   
    146. D(B   0,B   4,B   3,B  11)    -15.7466         0.010000   
    147. D(B   3,B   4,B   1,B   6)    153.1862         0.010000   
    148. D(B   3,B   4,B   1,B   5)    166.0545         0.010000   
    149. D(B   3,B   4,B   1,B   2)      8.5261         0.010000   
    150. D(B   3,B   4,B   0,B   2)    157.4773         0.010000   
    151. D(B   0,B   4,B   1,B   7)    103.0997         0.010000   
    152. D(B   0,B   4,B   1,B   6)    159.8401         0.010000   
    153. D(B   0,B   4,B   1,B   2)     15.1800         0.010000   
    154. D(B   3,B   4,B   0,B  11)     12.9107         0.010000   
    155. D(B   3,B   4,B   0,B  10)     69.6689         0.010000   
    156. D(B   0,B   4,B   1,B   5)    172.7084         0.010000   
    157. D(B   3,B   4,B   1,B   0)     -6.6539         0.010000   
    158. D(B   1,B   4,B   3,B   0)      6.5462         0.010000   
    159. D(B   3,B   4,B   0,B   1)    172.6515         0.010000   
    160. D(B   1,B   4,B   0,B  11)   -159.7407         0.010000   
    161. D(B   1,B   4,B   0,B  10)   -102.9825         0.010000   
    162. D(B   1,B   4,B   0,B   2)    -15.1742         0.010000   
    163. D(B   1,B   4,B   0,B   3)   -172.6515         0.010000   
    164. D(B   6,B   5,B   1,B   0)   -158.4217         0.010000   
    165. D(B   4,B   5,B   1,B   7)    152.9869         0.010000   
    166. D(B   4,B   5,B   1,B   2)     85.5640         0.010000   
    167. D(B   4,B   5,B   1,B   0)      7.2952         0.010000   
    168. D(B   4,B   5,B   1,B   6)    165.7169         0.010000   
    169. D(B   6,B   5,B   4,B   1)     15.6860         0.010000   
    170. D(B   6,B   5,B   4,B   0)      9.1897         0.010000   
    171. D(B   1,B   5,B   4,B   3)    -52.3708         0.010000   
    172. D(B   1,B   5,B   4,B   0)     -6.4963         0.010000   
    173. D(B   6,B   5,B   4,B   3)    -36.6849         0.010000   
    174. D(B   6,B   5,B   1,B   4)   -165.7169         0.010000   
    175. D(B   6,B   5,B   1,B   2)    -80.1530         0.010000   
    176. D(B   7,B   6,B   5,B   4)      0.0245         0.010000   
    177. D(B   7,B   6,B   1,B   0)    -85.4726         0.010000   
    178. D(B   7,B   6,B   1,B   4)   -152.9832         0.010000   
    179. D(B   7,B   6,B   1,B   2)     -7.2985         0.010000   
    180. D(B   7,B   6,B   5,B   1)     16.4772         0.010000   
    181. D(B   5,B   6,B   1,B   7)    165.6975         0.010000   
    182. D(B   5,B   6,B   1,B   4)     12.7144         0.010000   
    183. D(B   5,B   6,B   1,B   2)    158.3990         0.010000   
    184. D(B   1,B   6,B   5,B   4)    -16.4527         0.010000   
    185. D(B   5,B   6,B   1,B   0)     80.2249         0.010000   
    186. D(B   8,B   7,B   6,B   5)     36.6061         0.010000   
    187. D(B   8,B   7,B   6,B   1)     52.3136         0.010000   
    188. D(B   2,B   7,B   6,B   5)     -9.2051         0.010000   
    189. D(B   2,B   7,B   6,B   1)      6.5024         0.010000   
    190. D(B   1,B   7,B   6,B   5)    -15.7075         0.010000   
    191. D(B   6,B   7,B   2,B   9)    153.2011         0.010000   
    192. D(B   6,B   7,B   2,B   1)     -6.6098         0.010000   
    193. D(B   6,B   7,B   2,B   0)      8.5260         0.010000   
    194. D(B   1,B   7,B   2,B  10)    103.0646         0.010000   
    195. D(B   1,B   7,B   2,B   9)    159.8109         0.010000   
    196. D(B   1,B   7,B   2,B   8)    172.7096         0.010000   
    197. D(B   1,B   7,B   2,B   0)     15.1358         0.010000   
    198. D(B   6,B   7,B   1,B   5)     12.8849         0.010000   
    199. D(B   6,B   7,B   2,B   8)    166.0998         0.010000   
    200. D(B   6,B   7,B   1,B   4)     69.6194         0.010000   
    201. D(B   6,B   7,B   1,B   2)    172.7010         0.010000   
    202. D(B   6,B   7,B   1,B   0)    157.5712         0.010000   
    203. D(B   2,B   7,B   1,B   6)   -172.7010         0.010000   
    204. D(B   2,B   7,B   1,B   5)   -159.8161         0.010000   
    205. D(B   2,B   7,B   1,B   4)   -103.0816         0.010000   
    206. D(B   2,B   7,B   1,B   0)    -15.1298         0.010000   
    207. D(B   9,B   8,B   7,B   6)    -36.5833         0.010000   
    208. D(B   9,B   8,B   7,B   2)     15.7247         0.010000   
    209. D(B   2,B   8,B   7,B   6)    -52.3080         0.010000   
    210. D(B   2,B   8,B   7,B   1)     -6.4954         0.010000   
    211. D(B   9,B   8,B   2,B   7)   -165.6804         0.010000   
    212. D(B   9,B   8,B   2,B   1)   -158.3880         0.010000   
    213. D(B   9,B   8,B   2,B   0)    -80.1266         0.010000   
    214. D(B   7,B   8,B   2,B  10)    152.9281         0.010000   
    215. D(B   9,B   8,B   7,B   1)      9.2293         0.010000   
    216. D(B   7,B   8,B   2,B   9)    165.6804         0.010000   
    217. D(B   7,B   8,B   2,B   1)      7.2924         0.010000   
    218. D(B   7,B   8,B   2,B   0)     85.5537         0.010000   
    219. D(B  10,B   9,B   8,B   2)     16.5008         0.010000   
    220. D(B   2,B   9,B   8,B   7)    -16.4924         0.010000   
    221. D(B  10,B   9,B   2,B   7)   -152.9259         0.010000   
    222. D(B  10,B   9,B   2,B   1)    -85.4681         0.010000   
    223. D(B  10,B   9,B   2,B   0)     -7.2265         0.010000   
    224. D(B   8,B   9,B   2,B  10)    165.6706         0.010000   
    225. D(B   8,B   9,B   2,B   7)     12.7447         0.010000   
    226. D(B   8,B   9,B   2,B   1)     80.2026         0.010000   
    227. D(B  10,B   9,B   8,B   7)      0.0084         0.010000   
    228. D(B   8,B   9,B   2,B   0)    158.4442         0.010000   
    229. D(B   2,B  10,B   0,B  11)    172.6888         0.010000   
    230. D(B   2,B  10,B   0,B   4)    103.0114         0.010000   
    231. D(B   2,B  10,B   0,B   3)    159.7582         0.010000   
    232. D(B   2,B  10,B   0,B   1)     15.2366         0.010000   
    233. D(B  11,B  10,B   9,B   8)     36.5507         0.010000   
    234. D(B   2,B  10,B   9,B   8)    -15.7326         0.010000   
    235. D(B   0,B  10,B   9,B   8)     -9.2930         0.010000   
    236. D(B   0,B  10,B   9,B   2)      6.4396         0.010000   
    237. D(B   9,B  10,B   2,B   7)     69.6506         0.010000   
    238. D(B   9,B  10,B   2,B   1)    157.5338         0.010000   
    239. D(B   9,B  10,B   2,B   0)    172.7742         0.010000   
    240. D(B   0,B  10,B   2,B   9)   -172.7742         0.010000   
    241. D(B   0,B  10,B   2,B   8)   -159.8673         0.010000   
    242. D(B   0,B  10,B   2,B   7)   -103.1236         0.010000   
    243. D(B   9,B  10,B   2,B   8)     12.9070         0.010000   
    244. D(B   0,B  10,B   2,B   1)    -15.2404         0.010000   
    245. D(B   9,B  10,B   0,B   4)     96.4646         0.010000   
    246. D(B   9,B  10,B   0,B   3)    153.2113         0.010000   
    247. D(B  11,B  10,B   9,B   2)     52.2834         0.010000   
    248. D(B   9,B  10,B   0,B   2)     -6.5469         0.010000   
    249. D(B   9,B  10,B   0,B   1)      8.6898         0.010000   
    250. D(B   3,B  11,B  10,B   2)      9.2423         0.010000   
    251. D(B   3,B  11,B  10,B   0)     15.7575         0.010000   
    252. D(B   0,B  11,B  10,B   9)    -52.3238         0.010000   
    253. D(B  10,B  11,B   3,B   4)     -0.0094         0.010000   
    254. D(B  10,B  11,B   3,B   0)    -16.5278         0.010000   
    255. D(B   0,B  11,B   3,B   4)     16.5183         0.010000   
    256. D(B  10,B  11,B   0,B   3)    165.6446         0.010000   
    257. D(B  10,B  11,B   0,B   2)      7.3109         0.010000   
    258. D(B  10,B  11,B   0,B   1)     85.4978         0.010000   
    259. D(B   0,B  11,B  10,B   2)     -6.5152         0.010000   
    260. D(B   3,B  11,B   0,B  10)   -165.6446         0.010000   
    261. D(B   3,B  11,B   0,B   4)    -12.7547         0.010000   
    262. D(B   3,B  11,B   0,B   2)   -158.3337         0.010000   
    263. D(B   3,B  11,B  10,B   9)    -36.5663         0.010000   
    264. D(B   3,B  11,B   0,B   1)    -80.1468         0.010000   
    -----------------------------------------------------------------

Number of atoms                         .... 12
Number of degrees of freedom            .... 264


         *************************************************************
         *                GEOMETRY OPTIMIZATION CYCLE   1            *
         *************************************************************
---------------------------------
CARTESIAN COORDINATES (ANGSTROEM)
---------------------------------
  B      0.952413   -0.234629   -0.379814
  B     -0.273031    0.941790   -0.379204
  B     -0.678966   -0.707541   -0.378921
  B      2.453064    0.211938    0.169106
  B      1.416598    1.476151    0.039878
  B      0.110927    2.459891    0.168793
  B     -1.410059    2.018537    0.168784
  B     -1.986428    0.488626    0.040418
  B     -2.185916   -1.133963    0.169125
  B     -1.043163   -2.230563    0.169771
  B      0.569705   -1.964174    0.042048
  B      2.074857   -1.326063    0.170017

----------------------------
CARTESIAN COORDINATES (A.U.)
----------------------------
  NO LB      ZA    FRAG     MASS         X           Y           Z
   0 B     5.0000    0    10.810    1.799799   -0.443384   -0.717745
   1 B     5.0000    0    10.810   -0.515954    1.779724   -0.716593
   2 B     5.0000    0    10.810   -1.283060   -1.337060   -0.716058
   3 B     5.0000    0    10.810    4.635619    0.400505    0.319564
   4 B     5.0000    0    10.810    2.676982    2.789521    0.075358
   5 B     5.0000    0    10.810    0.209622    4.648521    0.318973
   6 B     5.0000    0    10.810   -2.664625    3.814482    0.318955
   7 B     5.0000    0    10.810   -3.753806    0.923369    0.076379
   8 B     5.0000    0    10.810   -4.130783   -2.142879    0.319600
   9 B     5.0000    0    10.810   -1.971292   -4.215153    0.320820
  10 B     5.0000    0    10.810    1.076586   -3.711751    0.079460
  11 B     5.0000    0    10.810    3.920912   -2.505895    0.321285

--------------------------------
INTERNAL COORDINATES (ANGSTROEM)
--------------------------------
 B      0   0   0     0.000000000000     0.00000000     0.00000000
 B      1   0   0     1.698726825036     0.00000000     0.00000000
 B      1   2   0     1.698541992304    59.99676058     0.00000000
 B      1   2   3     1.659123066972   117.77281255   201.99247923
 B      4   1   2     1.639876760141    67.03042589   352.65443055
 B      5   4   1     1.639859699358   163.63961918    52.39880520
 B      6   5   4     1.583727049058   126.69012041   323.31514190
 B      7   6   5     1.639911045375   126.69310674     0.02453049
 B      8   7   6     1.639863928867   163.67990552    36.60606113
 B      9   8   7     1.583798772540   126.68040306   323.41670291
 B     10   9   8     1.639700300576   126.66973385     0.00000000
 B      4   1   2     1.583820644432    61.49948799   158.32076462

---------------------------
INTERNAL COORDINATES (A.U.)
---------------------------
 B      0   0   0     0.000000000000     0.00000000     0.00000000
 B      1   0   0     3.210128475663     0.00000000     0.00000000
 B      1   2   0     3.209779192419    59.99676058     0.00000000
 B      1   2   3     3.135288219049   117.77281255   201.99247923
 B      4   1   2     3.098917970049    67.03042589   352.65443055
 B      5   4   1     3.098885729840   163.63961918    52.39880520
 B      6   5   4     2.992810393603   126.69012041   323.31514190
 B      7   6   5     3.098982759751   126.69310674     0.02453049
 B      8   7   6     3.098893722454   163.67990552    36.60606113
 B      9   8   7     2.992945931341   126.68040306   323.41670291
 B     10   9   8     3.098584509797   126.66973385     0.00000000
 B      4   1   2     2.992987263228    61.49948799   158.32076462

---------------------
BASIS SET INFORMATION
---------------------
There are 1 groups of distinct atoms

 Group   1 Type B   : 11s6p2d1f contracted to 5s3p2d1f pattern {62111/411/11/1}

Atom   0B    basis set group =>   1
Atom   1B    basis set group =>   1
Atom   2B    basis set group =>   1
Atom   3B    basis set group =>   1
Atom   4B    basis set group =>   1
Atom   5B    basis set group =>   1
Atom   6B    basis set group =>   1
Atom   7B    basis set group =>   1
Atom   8B    basis set group =>   1
Atom   9B    basis set group =>   1
Atom  10B    basis set group =>   1
Atom  11B    basis set group =>   1
---------------------------------
AUXILIARY/J BASIS SET INFORMATION
---------------------------------
There are 1 groups of distinct atoms

 Group   1 Type B   : 12s5p4d2f1g contracted to 6s4p3d1f1g pattern {711111/2111/211/2/1}

Atom   0B    basis set group =>   1
Atom   1B    basis set group =>   1
Atom   2B    basis set group =>   1
Atom   3B    basis set group =>   1
Atom   4B    basis set group =>   1
Atom   5B    basis set group =>   1
Atom   6B    basis set group =>   1
Atom   7B    basis set group =>   1
Atom   8B    basis set group =>   1
Atom   9B    basis set group =>   1
Atom  10B    basis set group =>   1
Atom  11B    basis set group =>   1


           ************************************************************
           *        Program running with 8 parallel MPI-processes     *
           *              working on a common directory               *
           ************************************************************
------------------------------------------------------------------------------
                             ORCA STARTUP CALCULATIONS
                           -- RI-GTO INTEGRALS CHOSEN --
------------------------------------------------------------------------------
------------------------------------------------------------------------------
                   ___                                                        
                  /   \      - P O W E R E D   B Y -                         
                 /     \                                                     
                 |  |  |   _    _      __       _____    __    __             
                 |  |  |  | |  | |    /  \     |  _  \  |  |  /  |          
                  \  \/   | |  | |   /    \    | | | |  |  | /  /          
                 / \  \   | |__| |  /  /\  \   | |_| |  |  |/  /          
                |  |  |   |  __  | /  /__\  \  |    /   |      \           
                |  |  |   | |  | | |   __   |  |    \   |  |\   \          
                \     /   | |  | | |  |  |  |  | |\  \  |  | \   \       
                 \___/    |_|  |_| |__|  |__|  |_| \__\ |__|  \__/        
                                                                              
                      - O R C A' S   B I G   F R I E N D -                    
                                      &                                       
                       - I N T E G R A L  F E E D E R -                       
                                                                              
 v1 FN, 2020, v2 2021, v3 2022-2024                                           
------------------------------------------------------------------------------


----------------------
SHARK INTEGRAL PACKAGE
----------------------

Number of atoms                             ...     12
Number of basis functions                   ...    372
Number of shells                            ...    132
Maximum angular momentum                    ...      3
Integral batch strategy                     ... SHARK/LIBINT Hybrid
RI-J (if used) integral strategy            ... SPLIT-RIJ (Revised 2003 algorithm where possible)
Printlevel                                  ...      1
Contraction scheme used                     ... SEGMENTED contraction
Prescreening option                         ... SCHWARTZ
   Thresh                                   ... 2.500e-11
   Tcut                                     ... 2.500e-12
   Tpresel                                  ... 2.500e-12 
Coulomb Range Separation                    ... NOT USED
Exchange Range Separation                   ... NOT USED
Multipole approximations                    ... NOT USED
Finite Nucleus Model                        ... NOT USED
CABS basis                                  ... NOT available
Auxiliary Coulomb fitting basis             ... AVAILABLE
   # of basis functions in Aux-J            ...    588
   # of shells in Aux-J                     ...    180
   Maximum angular momentum in Aux-J        ...      4
Auxiliary J/K fitting basis                 ... NOT available
Auxiliary Correlation fitting basis         ... NOT available
Auxiliary 'external' fitting basis          ... NOT available

Checking pre-screening integrals            ... done (  0.0 sec) Dimension = 132
   => SHARK Basis and OBASIS are compatible. Storing Pre-screening
Shell pair information
Shell pair cut-off parameter TPreSel        ...   2.5e-12
Total number of shell pairs                 ...      8778
Shell pairs after pre-screening             ...      8460
Total number of primitive shell pairs       ...     29184
Primitive shell pairs kept                  ...     21408
          la=0 lb=0:   1644 shell pairs
          la=1 lb=0:   2112 shell pairs
          la=1 lb=1:    666 shell pairs
          la=2 lb=0:   1380 shell pairs
          la=2 lb=1:    864 shell pairs
          la=2 lb=2:    300 shell pairs
          la=3 lb=0:    696 shell pairs
          la=3 lb=1:    432 shell pairs
          la=3 lb=2:    288 shell pairs
          la=3 lb=3:     78 shell pairs

Checking whether 4 symmetric matrices of dimension 372 fit in memory
:Max Core in MB      =   2500.00
 MB in use           =     14.68
 MB left             =   2485.32
 MB needed           =      2.12
 Data fit in memory  = YES
Calculating RI/J V-Matrix + Cholesky decomp.... done (  0.2 sec)
Calculating Nuclear repulsion               ... done (  0.0 sec) ENN=    348.475483184674 Eh

Diagonalization of the overlap matrix:
Smallest eigenvalue                        ... 1.038e-05
Time for diagonalization                   ...    0.071 sec
Threshold for overlap eigenvalues          ... 1.000e-07
Number of eigenvalues below threshold      ... 0
Time for construction of square roots      ...    0.029 sec
Total time needed                          ...    0.137 sec

-------------------
DFT GRID GENERATION
-------------------

General Integration Accuracy     IntAcc      ... 4.388
Radial Grid Type                 RadialGrid  ... OptM3 with GC (2021)
Angular Grid (max. ang.)         AngularGrid ... 4 (Lebedev-302)
Angular grid pruning method      GridPruning ... 4 (adaptive)
Weight generation scheme         WeightScheme... mBecke (2022)
Basis function cutoff            BFCut       ... 1.0000e-11
Integration weight cutoff        WCut        ... 1.0000e-14
Partially contracted basis set               ... off
Rotationally invariant grid construction     ... off
Angular grids for H and He will be reduced by one unit

Total number of grid points                  ...    70937
Total number of batches                      ...     1116
Average number of points per batch           ...       63
Average number of grid points per atom       ...     5911

--------------------
COSX GRID GENERATION
--------------------

GRIDX 1
-------
General Integration Accuracy     IntAcc      ... 3.816
Radial Grid Type                 RadialGrid  ... OptM3 with GC (2021)
Angular Grid (max. ang.)         AngularGrid ... 1 (Lebedev-50)
Angular grid pruning method      GridPruning ... 4 (adaptive)
Weight generation scheme         WeightScheme... mBecke (2022)
Basis function cutoff            BFCut       ... 1.0000e-11
Integration weight cutoff        WCut        ... 1.0000e-14
Partially contracted basis set               ... on
Rotationally invariant grid construction     ... off
Angular grids for H and He will be reduced by one unit

Total number of grid points                  ...     8901
Total number of batches                      ...       75
Average number of points per batch           ...      118
Average number of grid points per atom       ...      742
UseSFitting                                  ... on

GRIDX 2
-------
General Integration Accuracy     IntAcc      ... 4.020
Radial Grid Type                 RadialGrid  ... OptM3 with GC (2021)
Angular Grid (max. ang.)         AngularGrid ... 2 (Lebedev-110)
Angular grid pruning method      GridPruning ... 4 (adaptive)
Weight generation scheme         WeightScheme... mBecke (2022)
Basis function cutoff            BFCut       ... 1.0000e-11
Integration weight cutoff        WCut        ... 1.0000e-14
Partially contracted basis set               ... on
Rotationally invariant grid construction     ... off
Angular grids for H and He will be reduced by one unit

Total number of grid points                  ...    21115
Total number of batches                      ...      168
Average number of points per batch           ...      125
Average number of grid points per atom       ...     1760
UseSFitting                                  ... on

GRIDX 3
-------
General Integration Accuracy     IntAcc      ... 4.338
Radial Grid Type                 RadialGrid  ... OptM3 with GC (2021)
Angular Grid (max. ang.)         AngularGrid ... 3 (Lebedev-194)
Angular grid pruning method      GridPruning ... 4 (adaptive)
Weight generation scheme         WeightScheme... mBecke (2022)
Basis function cutoff            BFCut       ... 1.0000e-11
Integration weight cutoff        WCut        ... 1.0000e-14
Partially contracted basis set               ... on
Rotationally invariant grid construction     ... off
Angular grids for H and He will be reduced by one unit

Total number of grid points                  ...    46817
Total number of batches                      ...      372
Average number of points per batch           ...      125
Average number of grid points per atom       ...     3901
UseSFitting                                  ... on
Grids setup in   2.6 sec
Initializing property integral containers    ... done (  0.0 sec)

SHARK setup successfully completed in   3.6 seconds

Maximum memory used throughout the entire STARTUP-calculation: 30.0 MB


           ************************************************************
           *        Program running with 8 parallel MPI-processes     *
           *              working on a common directory               *
           ************************************************************
-------------------------------------------------------------------------------
                                 ORCA GUESS
                   Start orbitals & Density for SCF / CASSCF
-------------------------------------------------------------------------------

------------
SCF SETTINGS
------------
Hamiltonian:
 Density Functional     Method          .... DFT(GTOs)
 Exchange Functional    Exchange        .... B88
   X-Alpha parameter    XAlpha          ....  0.666667
   Becke's b parameter  XBeta           ....  0.004200
 Correlation Functional Correlation     .... LYP
 LDA part of GGA corr.  LDAOpt          .... VWN-5
 Gradients option       PostSCFGGA      .... off
 Hybrid DFT is turned on
   Fraction HF Exchange ScalHFX         ....  0.200000
   Scaling of DF-GGA-X  ScalDFX         ....  0.720000
   Scaling of DF-GGA-C  ScalDFC         ....  0.810000
   Scaling of DF-LDA-C  ScalLDAC        ....  1.000000
   Perturbative correction              ....  0.000000
   NL short-range parameter             ....  4.800000
 RI-approximation to the Coulomb term is turned on
   Number of AuxJ basis functions       .... 588
   RIJ-COSX (HFX calculated with COS-X)).... on


General Settings:
 Integral files         IntName         .... rank05_quasi_planar_nn2.50
 Hartree-Fock type      HFTyp           .... RHF
 Total Charge           Charge          ....    0
 Multiplicity           Mult            ....    1
 Number of Electrons    NEL             ....   60
 Basis Dimension        Dim             ....  372
 Nuclear Repulsion      ENuc            ....    348.4754831847 Eh

Convergence Acceleration:
 AO-DIIS                CNVDIIS         .... on
   Start iteration      DIISMaxIt       ....    12
   Startup error        DIISStart       ....  0.200000
   # of expansion vecs  DIISMaxEq       ....     5
   Bias factor          DIISBfac        ....   1.050
   Max. coefficient     DIISMaxC        ....  10.000
 MO-DIIS                CNVKDIIS        .... off
 Trust-Rad. Augm. Hess. CNVTRAH         .... auto
   Auto Start mean grad. ratio tolernc. ....  1.125000
   Auto Start start iteration           ....    50
   Auto Start num. interpolation iter.  ....    10
   Max. Number of Micro iterations      ....    24
   Max. Number of Macro iterations      .... Maxiter - #DIIS iter
   Number of Davidson start vectors     ....     2
   Converg. threshold    (grad. norm)   ....   1.000e-05
   Grad. Scal. Fac. for Micro threshold ....   0.100
   Minimum threshold for Micro iter.    ....   1.000e-02
   NR start threshold (gradient norm)   ....   1.000e-04
   Initial trust radius                 ....   0.400
   Minimum AH scaling param. (alpha)    ....   1.000
   Maximum AH scaling param. (alpha)    .... 1000.000
   Quad. conv. algorithm                .... NR
   White noise on init. David. guess    .... on
   Maximum white noise                  ....   0.010
   Pseudo random numbers                .... off
   Inactive MOs                         .... canonical
   Orbital update algorithm             .... Taylor
   Preconditioner                       .... Diag
   Full preconditioner red. dimension   ....   250
 SOSCF                 CNVSOSCF           .... on
   Start iteration     SOSCFMaxIt         ....   150
   Startup grad/error  SOSCFStart         ....  0.003300
   Hessian update      SOSCFHessUp        .... L-BFGS
   Autom. constraints  SOSCFAutoConstrain .... off
 Level Shifting         CNVShift        .... on
   Level shift para.    LevelShift      ....    0.2500
   Turn off err/grad.   ShiftErr        ....    0.0010
 Zerner damping         CNVZerner       .... off
 Static damping         CNVDamp         .... on
   Fraction old density DampFac         ....    0.7000
   Max. Damping (<1)    DampMax         ....    0.9800
   Min. Damping (>=0)   DampMin         ....    0.0000
   Turn off err/grad.   DampErr         ....    0.1000

SCF Procedure:
 Maximum # iterations   MaxIter         ....   125
 SCF integral mode      SCFMode         .... Direct
   Integral package                     .... SHARK and LIBINT hybrid scheme
 Reset frequency        DirectResetFreq ....    20
 Integral Threshold     Thresh          ....  2.500e-11 Eh
 Primitive CutOff       TCut            ....  2.500e-12 Eh

Convergence Tolerance:
 Convergence Check Mode ConvCheckMode   .... Total+1el-Energy
 Convergence forced     ConvForced      .... 0
 Energy Change          TolE            ....  1.000e-08 Eh
 1-El. energy change                    ....  1.000e-05 Eh
 Orbital Gradient       TolG            ....  1.000e-05
 Orbital Rotation angle TolX            ....  1.000e-05
 DIIS Error             TolErr          ....  5.000e-07

------------------------------
INITIAL GUESS: MODEL POTENTIAL
------------------------------
Loading Hartree-Fock densities                     ... done
Calculating cut-offs                               ... done
Initializing the effective Hamiltonian             ... done
Setting up the integral package (SHARK)            ... done
Starting the Coulomb interaction                   ... done (   0.2 sec)
Making the grid                                    ... done (   0.2 sec)
Mapping shells                                     ... done
Starting the XC term evaluation                    ... done (   0.2 sec)
  promolecular density results
     # of electrons  =     60.000401114
     EX              =    -45.921957112
     EC              =     -1.894312966
     EX+EC           =    -47.816270079
Transforming the Hamiltonian                       ... done (   0.0 sec)
Diagonalizing the Hamiltonian                      ... done (   0.0 sec)
Back transforming the eigenvectors                 ... done (   0.0 sec)
Now organizing SCF variables                       ... done
                      ------------------
                      INITIAL GUESS DONE (   0.8 sec)
                      ------------------
             **** ENERGY FILE WAS UPDATED (rank05_quasi_planar_nn2.50.en.tmp) ****
Finished Guess after   1.5 sec
Maximum memory used throughout the entire GUESS-calculation: 22.5 MB


           ************************************************************
           *        Program running with 8 parallel MPI-processes     *
           *              working on a common directory               *
           ************************************************************

-------------------------------------------------------------------------------------------
                                      ORCA LEAN-SCF
                              memory conserving SCF solver
-------------------------------------------------------------------------------------------

----------------------------------------D-I-I-S--------------------------------------------
Iteration    Energy (Eh)           Delta-E    RMSDP     MaxDP     DIISErr   Damp  Time(sec)
-------------------------------------------------------------------------------------------
               ***  Starting incremental Fock matrix formation  ***
    1    -297.4712143086011338     0.00e+00  6.52e-03  8.46e-02  1.34e-01  0.700   4.5
    2    -297.6386523806909281    -1.67e-01  4.48e-03  4.06e-02  6.99e-02  0.700   3.2
                               ***Turning on AO-DIIS***
    3    -297.7078206289713762    -6.92e-02  2.39e-03  2.17e-02  2.90e-02  0.700   2.6
    4    -297.7482074797288760    -4.04e-02  5.29e-03  5.17e-02  1.65e-02  0.000   2.4
    5    -297.8346370993739356    -8.64e-02  7.92e-04  1.06e-02  6.65e-03  0.000   2.3
                              *** Initializing SOSCF ***
---------------------------------------S-O-S-C-F--------------------------------------
Iteration    Energy (Eh)           Delta-E    RMSDP     MaxDP     MaxGrad    Time(sec)
--------------------------------------------------------------------------------------
    6    -297.8357424082353191    -1.11e-03  5.89e-04  1.36e-02  1.63e-03     2.2
               *** Restarting incremental Fock matrix formation ***
    7    -297.8358264694364834    -8.41e-05  7.94e-04  2.05e-02  3.98e-04     4.2
    8    -297.8358408315501720    -1.44e-05  2.26e-04  5.72e-03  2.34e-04     3.9
    9    -297.8358442846056278    -3.45e-06  1.40e-04  3.52e-03  1.85e-04     3.6
   10    -297.8358449635416036    -6.79e-07  6.79e-05  1.77e-03  1.46e-04     3.5
   11    -297.8358454073184021    -4.44e-07  4.71e-05  1.12e-03  6.15e-05     3.8
   12    -297.8358456283256146    -2.21e-07  7.23e-06  1.61e-04  1.82e-05     3.9
   13    -297.8358456595884718    -3.13e-08  7.12e-06  1.79e-04  7.69e-06     3.5
   14    -297.8358456562993979     3.29e-09  4.19e-06  1.13e-04  1.21e-05     3.6
                 **** Energy Check signals convergence ****

               *****************************************************
               *                     SUCCESS                       *
               *           SCF CONVERGED AFTER  14 CYCLES          *
               *****************************************************

Recomputing exchange energy using gridx3       ... done (    6.595 sec)
Old exchange energy                            :     -9.312438344 Eh
New exchange energy                            :     -9.312430327 Eh
Exchange energy change after final integration :      0.000008017 Eh
Total energy after final integration           :   -297.835837641 Eh
             **** ENERGY FILE WAS UPDATED (rank05_quasi_planar_nn2.50.en.tmp) ****

----------------
TOTAL SCF ENERGY
----------------

Total Energy       :       -297.83583764071972 Eh           -8104.52517 eV

Components:
Nuclear Repulsion  :        348.47548318467375 Eh            9482.49998 eV
Electronic Energy  :       -646.31132884205101 Eh          -17587.02536 eV
One Electron Energy:      -1085.70532917423907 Eh          -29543.54397 eV
Two Electron Energy:        439.39400033218806 Eh           11956.51861 eV

Virial components:
Potential Energy   :       -593.60242454565196 Eh          -16152.74316 eV
Kinetic Energy     :        295.76658690493230 Eh            8048.21799 eV
Virial Ratio       :          2.00699622887575

DFT components:
N(Alpha)           :       29.999993980293 electrons
N(Beta)            :       29.999993980293 electrons
N(Total)           :       59.999987960586 electrons
E(X)               :      -36.939886293018 Eh       
E(C)               :       -2.272676597161 Eh       
E(XC)              :      -39.212562890179 Eh       

---------------
SCF CONVERGENCE
---------------

  Last Energy change         ...   -3.2891e-09  Tolerance :   1.0000e-08
  Last MAX-Density change    ...    1.1255e-04  Tolerance :   1.0000e-07
  Last RMS-Density change    ...    4.1901e-06  Tolerance :   5.0000e-09
  Last DIIS Error            ...    1.6289e-03  Tolerance :   5.0000e-07
  Last Orbital Gradient      ...    1.2068e-05  Tolerance :   1.0000e-05
  Last Orbital Rotation      ...    2.7565e-05  Tolerance :   1.0000e-05


----------------
ORBITAL ENERGIES
----------------

  NO   OCC          E(Eh)            E(eV) 
   0   2.0000      -6.802986      -185.1187 
   1   2.0000      -6.802969      -185.1182 
   2   2.0000      -6.802892      -185.1161 
   3   2.0000      -6.799777      -185.0313 
   4   2.0000      -6.799207      -185.0158 
   5   2.0000      -6.799188      -185.0153 
   6   2.0000      -6.778799      -184.4605 
   7   2.0000      -6.778797      -184.4605 
   8   2.0000      -6.778780      -184.4600 
   9   2.0000      -6.778018      -184.4392 
  10   2.0000      -6.778004      -184.4389 
  11   2.0000      -6.778002      -184.4388 
  12   2.0000      -0.772441       -21.0192 
  13   2.0000      -0.687234       -18.7006 
  14   2.0000      -0.687216       -18.7001 
  15   2.0000      -0.571492       -15.5511 
  16   2.0000      -0.571472       -15.5505 
  17   2.0000      -0.567081       -15.4311 
  18   2.0000      -0.450510       -12.2590 
  19   2.0000      -0.402245       -10.9456 
  20   2.0000      -0.382222       -10.4008 
  21   2.0000      -0.359147        -9.7729 
  22   2.0000      -0.359125        -9.7723 
  23   2.0000      -0.339372        -9.2348 
  24   2.0000      -0.339360        -9.2345 
  25   2.0000      -0.309243        -8.4149 
  26   2.0000      -0.284656        -7.7459 
  27   2.0000      -0.284645        -7.7456 
  28   2.0000      -0.257788        -7.0148 
  29   2.0000      -0.257749        -7.0137 
  30   0.0000      -0.126729        -3.4485 
  31   0.0000      -0.126707        -3.4479 
  32   0.0000      -0.117528        -3.1981 
  33   0.0000      -0.094353        -2.5675 
  34   0.0000      -0.036971        -1.0060 
  35   0.0000      -0.036955        -1.0056 
  36   0.0000      -0.005984        -0.1628 
  37   0.0000      -0.002681        -0.0730 
  38   0.0000      -0.002628        -0.0715 
  39   0.0000       0.001576         0.0429 
  40   0.0000       0.009609         0.2615 
*Only the first 10 virtual orbitals were printed.

                    ********************************
                    * MULLIKEN POPULATION ANALYSIS *
                    ********************************

-----------------------
MULLIKEN ATOMIC CHARGES
-----------------------
   0 B :    0.289255
   1 B :    0.289430
   2 B :    0.288882
   3 B :   -0.157412
   4 B :    0.025412
   5 B :   -0.157655
   6 B :   -0.157466
   7 B :    0.025826
   8 B :   -0.157277
   9 B :   -0.157613
  10 B :    0.026048
  11 B :   -0.157431
Sum of atomic charges:    0.0000000

--------------------------------
MULLIKEN REDUCED ORBITAL CHARGES
--------------------------------
  0 B s       :     2.809268  s :     2.809268
      pz      :     0.642429  p :     1.723915
      px      :     0.518888
      py      :     0.562597
      dz2     :     0.014038  d :     0.161813
      dxz     :     0.017082
      dyz     :     0.021580
      dx2y2   :     0.062071
      dxy     :     0.047043
      f0      :     0.002154  f :     0.015749
      f+1     :     0.001712
      f-1     :     0.001316
      f+2     :     0.001085
      f-2     :     0.000969
      f+3     :     0.004861
      f-3     :     0.003652

  1 B s       :     2.808215  s :     2.808215
      pz      :     0.642832  p :     1.725206
      px      :     0.561900
      py      :     0.520473
      dz2     :     0.013932  d :     0.161395
      dxz     :     0.021441
      dyz     :     0.017192
      dx2y2   :     0.060041
      dxy     :     0.048788
      f0      :     0.002162  f :     0.015754
      f+1     :     0.001324
      f-1     :     0.001702
      f+2     :     0.001064
      f-2     :     0.000982
      f+3     :     0.004867
      f-3     :     0.003653

  2 B s       :     2.809207  s :     2.809207
      pz      :     0.642348  p :     1.724671
      px      :     0.542305
      py      :     0.540018
      dz2     :     0.013985  d :     0.161490
      dxz     :     0.019440
      dyz     :     0.019248
      dx2y2   :     0.041250
      dxy     :     0.067567
      f0      :     0.002159  f :     0.015750
      f+1     :     0.001500
      f-1     :     0.001521
      f+2     :     0.000928
      f-2     :     0.001122
      f+3     :     0.004864
      f-3     :     0.003656

  3 B s       :     3.337628  s :     3.337628
      pz      :     0.423553  p :     1.741536
      px      :     0.545607
      py      :     0.772376
      dz2     :     0.008249  d :     0.072876
      dxz     :     0.013331
      dyz     :     0.010217
      dx2y2   :     0.021874
      dxy     :     0.019204
      f0      :     0.000985  f :     0.005372
      f+1     :     0.000733
      f-1     :    -0.000180
      f+2     :     0.000228
      f-2     :     0.000651
      f+3     :     0.001281
      f-3     :     0.001673

  4 B s       :     3.163607  s :     3.163607
      pz      :     0.424024  p :     1.708785
      px      :     0.646696
      py      :     0.638064
      dz2     :     0.003903  d :     0.093173
      dxz     :     0.019170
      dyz     :     0.018756
      dx2y2   :     0.028776
      dxy     :     0.022568
      f0      :     0.001653  f :     0.009024
      f+1     :     0.000386
      f-1     :     0.000423
      f+2     :     0.000837
      f-2     :     0.000869
      f+3     :     0.002600
      f-3     :     0.002256

  5 B s       :     3.337984  s :     3.337984
      pz      :     0.423491  p :     1.741390
      px      :     0.774595
      py      :     0.543305
      dz2     :     0.008251  d :     0.072908
      dxz     :     0.009912
      dyz     :     0.013633
      dx2y2   :     0.022883
      dxy     :     0.018230
      f0      :     0.000986  f :     0.005373
      f+1     :    -0.000187
      f-1     :     0.000740
      f+2     :     0.000171
      f-2     :     0.000708
      f+3     :     0.002065
      f-3     :     0.000890

  6 B s       :     3.337530  s :     3.337530
      pz      :     0.423702  p :     1.741636
      px      :     0.686134
      py      :     0.631800
      dz2     :     0.008264  d :     0.072925
      dxz     :     0.014128
      dyz     :     0.009430
      dx2y2   :     0.014562
      dxy     :     0.026543
      f0      :     0.000986  f :     0.005374
      f+1     :     0.000146
      f-1     :     0.000407
      f+2     :     0.000857
      f-2     :     0.000021
      f+3     :     0.001281
      f-3     :     0.001675

  7 B s       :     3.162731  s :     3.162731
      pz      :     0.424129  p :     1.709321
      px      :     0.547352
      py      :     0.737841
      dz2     :     0.003874  d :     0.093097
      dxz     :     0.014666
      dyz     :     0.023274
      dx2y2   :     0.023857
      dxy     :     0.027426
      f0      :     0.001654  f :     0.009025
      f+1     :     0.000792
      f-1     :     0.000016
      f+2     :     0.000862
      f-2     :     0.000844
      f+3     :     0.002599
      f-3     :     0.002258

  8 B s       :     3.337252  s :     3.337252
      pz      :     0.423663  p :     1.741723
      px      :     0.579667
      py      :     0.738393
      dz2     :     0.008253  d :     0.072929
      dxz     :     0.015723
      dyz     :     0.007835
      dx2y2   :     0.024459
      dxy     :     0.016660
      f0      :     0.000986  f :     0.005372
      f+1     :     0.000572
      f-1     :    -0.000019
      f+2     :     0.000296
      f-2     :     0.000582
      f+3     :     0.002064
      f-3     :     0.000891

  9 B s       :     3.337467  s :     3.337467
      pz      :     0.423557  p :     1.741812
      px      :     0.745568
      py      :     0.572687
      dz2     :     0.008269  d :     0.072961
      dxz     :     0.007860
      dyz     :     0.015693
      dx2y2   :     0.025223
      dxy     :     0.015916
      f0      :     0.000985  f :     0.005373
      f+1     :    -0.000049
      f-1     :     0.000603
      f+2     :     0.000234
      f-2     :     0.000645
      f+3     :     0.001280
      f-3     :     0.001674

 10 B s       :     3.162046  s :     3.162046
      pz      :     0.424187  p :     1.709790
      px      :     0.733554
      py      :     0.552049
      dz2     :     0.003859  d :     0.093087
      dxz     :     0.023103
      dyz     :     0.014869
      dx2y2   :     0.024263
      dxy     :     0.026992
      f0      :     0.001652  f :     0.009029
      f+1     :     0.000034
      f-1     :     0.000777
      f+2     :     0.000862
      f-2     :     0.000847
      f+3     :     0.002599
      f-3     :     0.002258

 11 B s       :     3.337640  s :     3.337640
      pz      :     0.423614  p :     1.741493
      px      :     0.622421
      py      :     0.695458
      dz2     :     0.008276  d :     0.072923
      dxz     :     0.009700
      dyz     :     0.013852
      dx2y2   :     0.014326
      dxy     :     0.026769
      f0      :     0.000983  f :     0.005374
      f+1     :     0.000445
      f-1     :     0.000111
      f+2     :     0.000853
      f-2     :     0.000028
      f+3     :     0.002063
      f-3     :     0.000891



                     *******************************
                     * LOEWDIN POPULATION ANALYSIS *
                     *******************************

----------------------
LOEWDIN ATOMIC CHARGES
----------------------
   0 B :   -0.212812
   1 B :   -0.213192
   2 B :   -0.213112
   3 B :    0.080375
   4 B :    0.052262
   5 B :    0.080382
   6 B :    0.080457
   7 B :    0.052208
   8 B :    0.080497
   9 B :    0.080507
  10 B :    0.051915
  11 B :    0.080513

-------------------------------
LOEWDIN REDUCED ORBITAL CHARGES
-------------------------------
  0 B s       :     2.410170  s :     2.410170
      pz      :     0.517460  p :     1.982126
      px      :     0.765909
      py      :     0.698757
      dz2     :     0.058771  d :     0.716613
      dxz     :     0.096474
      dyz     :     0.093895
      dx2y2   :     0.246004
      dxy     :     0.221470
      f0      :     0.008430  f :     0.103903
      f+1     :     0.008558
      f-1     :     0.006348
      f+2     :     0.010453
      f-2     :     0.008912
      f+3     :     0.033697
      f-3     :     0.027505

  1 B s       :     2.410104  s :     2.410104
      pz      :     0.517382  p :     1.982262
      px      :     0.700466
      py      :     0.764414
      dz2     :     0.058801  d :     0.716915
      dxz     :     0.093915
      dyz     :     0.096413
      dx2y2   :     0.243094
      dxy     :     0.224692
      f0      :     0.008437  f :     0.103911
      f+1     :     0.006401
      f-1     :     0.008507
      f+2     :     0.010209
      f-2     :     0.009078
      f+3     :     0.033744
      f-3     :     0.027535

  2 B s       :     2.410101  s :     2.410101
      pz      :     0.517373  p :     1.982223
      px      :     0.730918
      py      :     0.733931
      dz2     :     0.058799  d :     0.716875
      dxz     :     0.095157
      dyz     :     0.095230
      dx2y2   :     0.212371
      dxy     :     0.255318
      f0      :     0.008437  f :     0.103914
      f+1     :     0.007398
      f-1     :     0.007503
      f+2     :     0.008337
      f-2     :     0.010973
      f+3     :     0.033728
      f-3     :     0.027538

  3 B s       :     2.640343  s :     2.640343
      pz      :     0.425351  p :     1.940424
      px      :     0.611830
      py      :     0.903243
      dz2     :     0.029216  d :     0.281339
      dxz     :     0.040147
      dyz     :     0.033524
      dx2y2   :     0.085834
      dxy     :     0.092619
      f0      :     0.005764  f :     0.057520
      f+1     :     0.005162
      f-1     :     0.005436
      f+2     :     0.002851
      f-2     :     0.004937
      f+3     :     0.015278
      f-3     :     0.018091

  4 B s       :     2.579605  s :     2.579605
      pz      :     0.392314  p :     1.901505
      px      :     0.761473
      py      :     0.747718
      dz2     :     0.031938  d :     0.404356
      dxz     :     0.055179
      dyz     :     0.053387
      dx2y2   :     0.155006
      dxy     :     0.108846
      f0      :     0.006174  f :     0.062271
      f+1     :     0.005099
      f-1     :     0.005011
      f+2     :     0.003545
      f-2     :     0.004834
      f+3     :     0.019153
      f-3     :     0.018456

  5 B s       :     2.640357  s :     2.640357
      pz      :     0.425224  p :     1.940434
      px      :     0.906878
      py      :     0.608332
      dz2     :     0.029223  d :     0.281300
      dxz     :     0.032877
      dyz     :     0.040730
      dx2y2   :     0.085781
      dxy     :     0.092689
      f0      :     0.005770  f :     0.057527
      f+1     :     0.005448
      f-1     :     0.005153
      f+2     :     0.002624
      f-2     :     0.005152
      f+3     :     0.019956
      f-3     :     0.013423

  6 B s       :     2.640340  s :     2.640340
      pz      :     0.425309  p :     1.940380
      px      :     0.785854
      py      :     0.729216
      dz2     :     0.029223  d :     0.281295
      dxz     :     0.041501
      dyz     :     0.032090
      dx2y2   :     0.091510
      dxy     :     0.086970
      f0      :     0.005769  f :     0.057528
      f+1     :     0.005260
      f-1     :     0.005343
      f+2     :     0.005634
      f-2     :     0.002135
      f+3     :     0.015283
      f-3     :     0.018104

  7 B s       :     2.579552  s :     2.579552
      pz      :     0.392352  p :     1.901557
      px      :     0.607515
      py      :     0.901691
      dz2     :     0.031946  d :     0.404408
      dxz     :     0.035085
      dyz     :     0.073482
      dx2y2   :     0.118777
      dxy     :     0.145118
      f0      :     0.006175  f :     0.062276
      f+1     :     0.004131
      f-1     :     0.005982
      f+2     :     0.004556
      f-2     :     0.003823
      f+3     :     0.019148
      f-3     :     0.018460

  8 B s       :     2.640388  s :     2.640388
      pz      :     0.425298  p :     1.940338
      px      :     0.648849
      py      :     0.866191
      dz2     :     0.029212  d :     0.281267
      dxz     :     0.044871
      dyz     :     0.028730
      dx2y2   :     0.090869
      dxy     :     0.087585
      f0      :     0.005769  f :     0.057511
      f+1     :     0.005123
      f-1     :     0.005476
      f+2     :     0.003453
      f-2     :     0.004316
      f+3     :     0.019947
      f-3     :     0.013427

  9 B s       :     2.640394  s :     2.640394
      pz      :     0.425222  p :     1.940310
      px      :     0.874980
      py      :     0.640108
      dz2     :     0.029227  d :     0.281273
      dxz     :     0.028779
      dyz     :     0.044835
      dx2y2   :     0.090337
      dxy     :     0.088094
      f0      :     0.005765  f :     0.057516
      f+1     :     0.005482
      f-1     :     0.005122
      f+2     :     0.003185
      f-2     :     0.004591
      f+3     :     0.015277
      f-3     :     0.018095

 10 B s       :     2.579424  s :     2.579424
      pz      :     0.392470  p :     1.901727
      px      :     0.894898
      py      :     0.614359
      dz2     :     0.031961  d :     0.404632
      dxz     :     0.072671
      dyz     :     0.036036
      dx2y2   :     0.122076
      dxy     :     0.141888
      f0      :     0.006174  f :     0.062303
      f+1     :     0.005940
      f-1     :     0.004174
      f+2     :     0.004483
      f-2     :     0.003922
      f+3     :     0.019140
      f-3     :     0.018468

 11 B s       :     2.640446  s :     2.640446
      pz      :     0.425361  p :     1.940287
      px      :     0.716841
      py      :     0.798085
      dz2     :     0.029230  d :     0.281248
      dxz     :     0.032677
      dyz     :     0.040970
      dx2y2   :     0.091007
      dxy     :     0.087364
      f0      :     0.005758  f :     0.057507
      f+1     :     0.005327
      f-1     :     0.005277
      f+2     :     0.005594
      f-2     :     0.002196
      f+3     :     0.019935
      f-3     :     0.013420



                      *****************************
                      * MAYER POPULATION ANALYSIS *
                      *****************************

  NA   - Mulliken gross atomic population
  ZA   - Total nuclear charge
  QA   - Mulliken gross atomic charge
  VA   - Mayer's total valence
  BVA  - Mayer's bonded valence
  FA   - Mayer's free valence

  ATOM       NA         ZA         QA         VA         BVA        FA
  0 B      4.7107     5.0000     0.2893     3.2248     3.2248     0.0000
  1 B      4.7106     5.0000     0.2894     3.2247     3.2247     0.0000
  2 B      4.7111     5.0000     0.2889     3.2262     3.2262     0.0000
  3 B      5.1574     5.0000    -0.1574     3.3240     3.3240     0.0000
  4 B      4.9746     5.0000     0.0254     3.3716     3.3716     0.0000
  5 B      5.1577     5.0000    -0.1577     3.3238     3.3238     0.0000
  6 B      5.1575     5.0000    -0.1575     3.3243     3.3243     0.0000
  7 B      4.9742     5.0000     0.0258     3.3723     3.3723     0.0000
  8 B      5.1573     5.0000    -0.1573     3.3245     3.3245     0.0000
  9 B      5.1576     5.0000    -0.1576     3.3246     3.3246    -0.0000
 10 B      4.9740     5.0000     0.0260     3.3725     3.3725     0.0000
 11 B      5.1574     5.0000    -0.1574     3.3242     3.3242     0.0000

  Mayer bond orders larger than 0.100000
B(  0-B ,  1-B ) :   0.5887 B(  0-B ,  2-B ) :   0.5887 B(  0-B ,  3-B ) :   0.5076 
B(  0-B ,  4-B ) :   0.4433 B(  0-B , 10-B ) :   0.4438 B(  0-B , 11-B ) :   0.5073 
B(  1-B ,  2-B ) :   0.5887 B(  1-B ,  4-B ) :   0.4436 B(  1-B ,  5-B ) :   0.5075 
B(  1-B ,  6-B ) :   0.5074 B(  1-B ,  7-B ) :   0.4433 B(  2-B ,  7-B ) :   0.4436 
B(  2-B ,  8-B ) :   0.5081 B(  2-B ,  9-B ) :   0.5080 B(  2-B , 10-B ) :   0.4437 
B(  3-B ,  4-B ) :   1.0941 B(  3-B , 11-B ) :   1.4066 B(  4-B ,  5-B ) :   1.0939 
B(  5-B ,  6-B ) :   1.4067 B(  6-B ,  7-B ) :   1.0943 B(  7-B ,  8-B ) :   1.0941 
B(  8-B ,  9-B ) :   1.4063 B(  9-B , 10-B ) :   1.0942 B( 10-B , 11-B ) :   1.0942 


-------
TIMINGS
-------

Total SCF time: 0 days 0 hours 0 min 58 sec 

Total time                  ....      58.135 sec
Sum of individual times     ....      54.851 sec  ( 94.4%)

SCF preparation             ....       0.691 sec  (  1.2%)
Fock matrix formation       ....      51.321 sec  ( 88.3%)
  Startup                   ....       0.029 sec  (  0.1% of F)
  Split-RI-J                ....       5.097 sec  (  9.9% of F)
  Chain of spheres X        ....      40.296 sec  ( 78.5% of F)
  XC integration            ....       8.139 sec  ( 15.9% of F)
    XC Preparation          ....       0.000 sec  (  0.0% of XC)
    Basis function eval.    ....       1.355 sec  ( 16.7% of XC)
    Density eval.           ....       2.069 sec  ( 25.4% of XC)
    XC-Functional eval.     ....       0.098 sec  (  1.2% of XC)
    XC-Potential eval.      ....       3.166 sec  ( 38.9% of XC)
Diagonalization             ....       0.000 sec  (  0.0%)
Density matrix formation    ....       0.323 sec  (  0.6%)
Total Energy calculation    ....       0.172 sec  (  0.3%)
Population analysis         ....       0.091 sec  (  0.2%)
Orbital Transformation      ....       0.199 sec  (  0.3%)
Orbital Orthonormalization  ....       0.000 sec  (  0.0%)
DIIS solution               ....       0.903 sec  (  1.6%)
SOSCF solution              ....       1.151 sec  (  2.0%)
[...]
     33       0.208818   0.399158  -0.080575  -0.041994   0.097041  -0.206476
     34      -0.240990  -0.115506   0.028348  -0.056468   0.316306  -0.106855
     35       0.101783   0.115987  -0.011565   0.052370   0.014236   0.004726
                 30         31         32         33         34         35    
      0       0.485611  -0.028838   0.168104  -0.485588   0.012234  -0.064922
      1      -0.093233   0.186478  -0.041262   0.119407  -0.064658  -0.011864
      2       0.144426  -0.021274   0.019299  -0.092675   0.004298  -0.009396
      3      -0.046745   0.213891  -0.048180   0.139320  -0.062028   0.021754
      4      -0.335058  -0.345519   0.166703  -0.480974   0.022210   0.062287
      5      -0.090169  -0.114293   0.019351  -0.092705   0.006055   0.008366
      6       0.008976  -0.367704  -0.120381   0.346729   0.050192   0.042595
      7       0.245769  -0.289263  -0.125513   0.361411   0.042947  -0.049980
      8      -0.053771   0.135565   0.019535  -0.092991  -0.010270   0.001031
      9      -0.323808  -0.083542  -0.013495   0.141579  -0.013660  -0.038997
     10      -0.104802   0.086891   0.387179   0.121422  -0.146209   0.467343
     11      -0.090797  -0.017746  -0.021217   0.046154   0.006139  -0.008771
     12       0.199515   0.079652  -0.023860  -0.007930   0.046872   0.298302
     13      -0.192120  -0.074853  -0.024628  -0.008465  -0.010595  -0.289686
     14      -0.001271   0.003554   0.022865   0.000302  -0.004719   0.000674
     15       0.004668   0.129001   0.387444   0.115510  -0.234510  -0.430668
     16       0.293472   0.166551   0.002074   0.146929  -0.015392   0.023216
     17       0.077948   0.049301  -0.021209   0.046215   0.007670   0.007218
     18      -0.156187  -0.202097  -0.328454  -0.176072   0.267210   0.307783
     19       0.012274   0.255066  -0.205297   0.062191   0.201091   0.186577
     20       0.030001   0.087471  -0.020938   0.046268   0.004282   0.009437
     21      -0.011114  -0.069988   0.033306   0.011208  -0.081034  -0.063194
     22      -0.040279  -0.284937  -0.008500  -0.002911  -0.372121  -0.161767
     23       0.003765  -0.000521   0.022811   0.000269   0.002007  -0.004264
     24      -0.052689   0.326485  -0.195510  -0.185025  -0.234085   0.015252
     25       0.095631   0.108723   0.334630   0.026855   0.430474   0.023321
     26       0.003593  -0.092352  -0.021278   0.046247  -0.010181   0.003008
     27      -0.135901   0.001892   0.342724   0.034366   0.426774  -0.108324
     28      -0.191303   0.273932  -0.181506  -0.183800  -0.215175   0.026488
     29       0.060709  -0.069832  -0.021131   0.046376  -0.010376  -0.001006
     30       0.221926  -0.176716  -0.010411  -0.003280  -0.330097   0.228091
     31       0.065135  -0.050279   0.032780   0.011131  -0.080659   0.087277
     32      -0.002301  -0.003001   0.022865   0.000264   0.002702   0.003871
     33      -0.194253   0.177963  -0.191288   0.069184   0.152132  -0.207672
     34       0.244513  -0.032789  -0.336658  -0.173197   0.208088  -0.363212
     35      -0.082134   0.043128  -0.020953   0.046279   0.002394  -0.010168


-----------
IR SPECTRUM
-----------

 Mode   freq       eps      Int      T**2         TX        TY        TZ
       cm**-1   L/(mol*cm) km/mol    a.u.
----------------------------------------------------------------------------
  6:    200.66   0.000032    0.16  0.000050  ( 0.005251 -0.004771 -0.000176)
  7:    201.10   0.000032    0.16  0.000050  ( 0.004743  0.005241 -0.000576)
  8:    225.39   0.002498   12.63  0.003459  (-0.000087 -0.000062 -0.058816)
  9:    373.24   0.000000    0.00  0.000000  ( 0.000065 -0.000088  0.000006)
 10:    406.45   0.000320    1.62  0.000246  ( 0.010836 -0.011330 -0.000008)
 11:    406.53   0.000318    1.61  0.000244  (-0.011301 -0.010777  0.000112)
 12:    456.01   0.000045    0.23  0.000031  (-0.000070 -0.000049 -0.005575)
 13:    473.99   0.000176    0.89  0.000116  ( 0.006586  0.008507 -0.000007)
 14:    474.15   0.000174    0.88  0.000114  (-0.008453  0.006560  0.000007)
 15:    517.60   0.000002    0.01  0.000001  (-0.000792  0.000911 -0.000000)
 16:    517.81   0.000002    0.01  0.000001  ( 0.000909  0.000755  0.000037)
 17:    526.27   0.000000    0.00  0.000000  ( 0.000055  0.000003 -0.000004)
 18:    536.85   0.000024    0.12  0.000014  ( 0.000007  0.000056  0.003713)
 19:    576.49   0.002003   10.12  0.001084  ( 0.011116 -0.030999  0.000013)
 20:    576.68   0.002004   10.13  0.001084  ( 0.030984  0.011152 -0.000014)
 21:    629.43   0.000001    0.00  0.000000  ( 0.000605  0.000071 -0.000033)
 22:    629.44   0.000001    0.00  0.000000  (-0.000163  0.000608 -0.000023)
 23:    691.26   0.000113    0.57  0.000051  (-0.000000 -0.000001 -0.007132)
 24:    829.73   0.000000    0.00  0.000000  (-0.000036 -0.000002 -0.000009)
 25:    931.82   0.010263   51.87  0.003437  ( 0.025098 -0.052984  0.000030)
 26:    931.87   0.010260   51.85  0.003436  ( 0.053004  0.025028 -0.000025)
 27:    973.75   0.003789   19.15  0.001214  ( 0.021972  0.027049  0.000016)
 28:    973.83   0.003780   19.10  0.001211  ( 0.026981 -0.021986  0.000014)
 29:   1155.97   0.000000    0.00  0.000000  (-0.000093  0.000023 -0.000002)
 30:   1171.33   0.004931   24.92  0.001314  (-0.033561  0.013692 -0.000027)
 31:   1171.40   0.004929   24.91  0.001313  ( 0.013652  0.033567 -0.000013)
 32:   1221.99   0.000070    0.36  0.000018  ( 0.000036  0.000021 -0.004243)
 33:   1279.76   0.001636    8.27  0.000399  (-0.000018  0.000019  0.019973)
 34:   1336.36   0.001441    7.28  0.000336  (-0.011340 -0.014419 -0.000013)
 35:   1336.48   0.001442    7.29  0.000337  ( 0.014426 -0.011337  0.000010)

* The epsilon (eps) is given for a Dirac delta lineshape.
** The dipole moment derivative (T) already includes vibrational overlap.

The first frequency considered to be a vibration is 6
The total number of vibrations considered is 30


--------------------------
THERMOCHEMISTRY AT 298.15K
--------------------------

Temperature         ...   298.15 K
Pressure            ...     1.00 atm
Total Mass          ...   129.72 AMU
Quasi RRHO          ...     True
Cut-Off Frequency   ...     1.00 cm^-1

Throughout the following assumptions are being made:
  (1) The electronic state is orbitally nondegenerate
  (2) There are no thermally accessible electronically excited states
  (3) Hindered rotations indicated by low frequency modes are not
      treated as such but are treated as vibrations and this may
      cause some error
  (4) All equations used are the standard statistical mechanics
      equations for an ideal gas
  (5) All vibrations are strictly harmonic

freq.     200.66  E(vib)   ...       0.35 
freq.     201.10  E(vib)   ...       0.35 
freq.     225.39  E(vib)   ...       0.33 
freq.     373.24  E(vib)   ...       0.21 
freq.     406.45  E(vib)   ...       0.19 
freq.     406.53  E(vib)   ...       0.19 
freq.     456.01  E(vib)   ...       0.16 
freq.     473.99  E(vib)   ...       0.15 
freq.     474.15  E(vib)   ...       0.15 
freq.     517.60  E(vib)   ...       0.13 
freq.     517.81  E(vib)   ...       0.13 
freq.     526.27  E(vib)   ...       0.13 
freq.     536.85  E(vib)   ...       0.12 
freq.     576.49  E(vib)   ...       0.11 
freq.     576.68  E(vib)   ...       0.11 
freq.     629.43  E(vib)   ...       0.09 
freq.     629.44  E(vib)   ...       0.09 
freq.     691.26  E(vib)   ...       0.07 
freq.     829.73  E(vib)   ...       0.04 
freq.     931.82  E(vib)   ...       0.03 
freq.     931.87  E(vib)   ...       0.03 
freq.     973.75  E(vib)   ...       0.03 
freq.     973.83  E(vib)   ...       0.03 
freq.    1155.97  E(vib)   ...       0.01 
freq.    1171.33  E(vib)   ...       0.01 
freq.    1171.40  E(vib)   ...       0.01 
freq.    1221.99  E(vib)   ...       0.01 
freq.    1279.76  E(vib)   ...       0.01 
freq.    1336.36  E(vib)   ...       0.01 
freq.    1336.48  E(vib)   ...       0.01 

------------
INNER ENERGY
------------

The inner energy is: U= E(el) + E(ZPE) + E(vib) + E(rot) + E(trans)
    E(el)   - is the total energy from the electronic structure calculation
              = E(kin-el) + E(nuc-el) + E(el-el) + E(nuc-nuc)
    E(ZPE)  - the the zero temperature vibrational energy from the frequency calculation
    E(vib)  - the the finite temperature correction to E(ZPE) due to population
              of excited vibrational states
    E(rot)  - is the rotational thermal energy
    E(trans)- is the translational thermal energy

Summary of contributions to the inner energy U:
Electronic energy                ...   -297.87420734 Eh
Zero point energy                ...      0.04951286 Eh      31.07 kcal/mol
Thermal vibrational correction   ...      0.00526020 Eh       3.30 kcal/mol
Thermal rotational correction    ...      0.00141627 Eh       0.89 kcal/mol
Thermal translational correction ...      0.00141627 Eh       0.89 kcal/mol
-----------------------------------------------------------------------
Total thermal energy                   -297.81660173 Eh


Summary of corrections to the electronic energy:
(perhaps to be used in another calculation)
Total thermal correction                  0.00809275 Eh       5.08 kcal/mol
Non-thermal (ZPE) correction              0.04951286 Eh      31.07 kcal/mol
-----------------------------------------------------------------------
Total correction                          0.05760561 Eh      36.15 kcal/mol


--------
ENTHALPY
--------

The enthalpy is H = U + kB*T
                kB is Boltzmann's constant
Total thermal energy              ...   -297.81660173 Eh 
Thermal Enthalpy correction       ...      0.00094421 Eh       0.59 kcal/mol
-----------------------------------------------------------------------
Total Enthalpy                    ...   -297.81565752 Eh


WARNING (ORCA/SYM): A non-planar off-center atom subset has been encountered
in function TSymmetryFinder::FilterSubsetShapes() which cannot occur under
regular conditions. The full point group may not be assigned correctly. If the
symmetry appears to be too low, please try increasing the cleaning tolerance
using option SymThresh in the %symmetry input block. If the problem persists,
you may post a message in the ORCA forum.

Note: Only C1 symmetry has been detected, increase convergence thresholds 
      if your molecule has a higher symmetry. Symmetry factor of 1.0 is   
      used for the rotational entropy correction. 
 

Note: Rotational entropy computed according to Herzberg 
Infrared and Raman Spectra, Chapter V,1, Van Nostrand Reinhold, 1945 
Point Group:  C1, Symmetry Number:   1  
Rotational constants in cm-1:     0.060593     0.060587     0.031057 

Vibrational entropy computed according to the QRRHO of S. Grimme
Chem.Eur.J. 2012 18 9955 using a reference frequency of 100.0 cm-1


-------
ENTROPY
-------

The entropy contributions are T*S = T*(S(el)+S(vib)+S(rot)+S(trans))
     S(el)   - electronic entropy
     S(vib)  - vibrational entropy
     S(rot)  - rotational entropy
     S(trans)- translational entropy
The entropies will be listed as multiplied by the temperature to get
units of energy

Electronic entropy                ...      0.00000000 Eh      0.00 kcal/mol
Vibrational entropy               ...      0.00796467 Eh      5.00 kcal/mol
Rotational entropy                ...      0.01379701 Eh      8.66 kcal/mol
Translational entropy             ...      0.01923977 Eh     12.07 kcal/mol
-----------------------------------------------------------------------
Final entropy term                ...      0.04100144 Eh     25.73 kcal/mol

In case the symmetry of your molecule has not been determined correctly
or in case you have a reason to use a different symmetry number we print 
out the resulting rotational entropy values for sn=1,12:

 non-linear molecules -----------------------------------
|  sn= 1 | S(rot)=       0.01379701 Eh      8.66 kcal/mol|
|  sn= 2 | S(rot)=       0.01314255 Eh      8.25 kcal/mol|
|  sn= 3 | S(rot)=       0.01275972 Eh      8.01 kcal/mol|
|  sn= 4 | S(rot)=       0.01248809 Eh      7.84 kcal/mol|
|  sn= 5 | S(rot)=       0.01227741 Eh      7.70 kcal/mol|
|  sn= 6 | S(rot)=       0.01210526 Eh      7.60 kcal/mol|
|  sn= 7 | S(rot)=       0.01195972 Eh      7.50 kcal/mol|
|  sn= 8 | S(rot)=       0.01183364 Eh      7.43 kcal/mol|
|  sn= 9 | S(rot)=       0.01172243 Eh      7.36 kcal/mol|
|  sn=10 | S(rot)=       0.01162295 Eh      7.29 kcal/mol|
|  sn=11 | S(rot)=       0.01153296 Eh      7.24 kcal/mol|
|  sn=12 | S(rot)=       0.01145081 Eh      7.19 kcal/mol|
 linear molecules ---------------------------------------
|  Dinfh | S(rot)=       0.00860394 Eh      5.40 kcal/mol|
|  Cinfv | S(rot)=       0.00925840 Eh      5.81 kcal/mol|
 --------------------------------------------------------


-------------------
GIBBS FREE ENERGY
-------------------

The Gibbs free energy is G = H - T*S

Total enthalpy                    ...   -297.81565752 Eh 
Total entropy correction          ...     -0.04100144 Eh    -25.73 kcal/mol
-----------------------------------------------------------------------
Final Gibbs free energy         ...   -297.85665896 Eh

For completeness - the Gibbs free energy minus the electronic energy
G-E(el)                           ...      0.01754838 Eh     11.01 kcal/mol


Maximum memory used throughout the entire PROP-calculation: 94.8 MB

--------------------------------
SUGGESTED CITATIONS FOR THIS RUN
--------------------------------

Below you find a list of papers that are relevant to this ORCA run
We neither can nor want to force you to cite these papers, but we appreciate if you do
You receive ORCA, which is the product of decades of hard work by many enthusiastic individuals, for free
The only thing we kindly ask in return is that you cite our papers,
We deeply appreciate it, if you show your appreciation for ORCA by not just citing the generic ORCA reference.

Please note that relegating all ORCA citations to the supporting information does *not* help us.
SI sections are not indexed - citations you put there will not count into any citation statistics
But we need these citations in order to attract the funding resources that allow us to do what we are doing

Therefore, if you are a happy ORCA user, please consider citing a few of the papers listed below in the main body of your paper

In addition to the list printed below, the program has created the file rank05_quasi_planar_nn2.50.bibtex that contains the list in bibtex format
You can import this file easily into all common literature databanks and citation aid programs

It goes without saying that in many instances, there are alternative algorithms to achieve similar
results as the ones you have gotten from ORCA. It is, of course, also the case that in some instances
ORCA just re-implements algorithms worked out by others. We are fully aware of that and we are also
fully appreciative of our colleagues work. Hence this citation list should not be read as indicating
that the listed papers, which are focused on our own work, are the only ones worth citing. It simply
meant to make it easier for users to cite ORCA specific papers. It is not a substitute for doing your
own literature research and citing the relevant literature in a scientifically appropriate manner.

List of essential papers. We consider these as the minimum necessary citations

  1. Neese, F.
     Software update: the ORCA program system, version 6.0
     WIRES Comput. Molec. Sci. 2025 15(1), e70019
     doi.org/10.1002/wcms.70019

List of papers to cite with high priority. The work reported in these papers was absolutely
necessary for this run to complete.
Our perspective: the developers of density functionals and basis sets usually get cited in chemistry papers
Good! But without the algorithms to do something with them, the functionals or basis sets would not do anything.
Hence, in our opinion, the algorithm design and method developments papers are equally worthy of getting cited

  1. Neese, F.
     An improvement of the resolution of the identity approximation for the formation of the Coulomb matrix
     J. Comp. Chem. 2003 24(14), 1740-1747
     doi.org/10.1002/jcc.10318
  2. Neese, F.; Wennmohs, F.; Hansen, A.; Becker, U.
     Efficient, approximate and parallel Hartree-Fock and hybrid DFT calculations. A 'chain-of-spheres' algorithm for the Hartree-Fock exchange
     Chem. Phys. 2009 356(1-3), 98-109
     doi.org/10.1016/j.chemphys.2008.10.036
  3. Grimme, S.; Antony, J.; Ehrlich, S.; Krieg, H.
     A consistent and accurate ab initio parametrization of density functional dispersion correction (DFT-D) for the 94 elements H-Pu
     J. Chem. Phys. 2010 132 , 154104
     doi.org/10.1063/1.3382344
  4. Grimme, S.; Ehrlich, S.; Goerigk, L.
     Effect of the damping function in dispersion corrected density functional theory
     J. Comput. Chem. 2011 32(7), 1456-1465
     doi.org/10.1002/jcc.21759
  5. Bykov, D.; Petrenko, T.; Izsak, R.; Kossmann, S.; Becker, U.; Valeev, E.; Neese, F.
     Efficient implementation of the analytic second derivatives of Hartree-Fock and hybrid DFT energies: a detailed analysis of different approximations
     Molec. Phys. 2015 113 , 1961-1977
     doi.org/10.1080/00268976.2015.1025114
  6. Helmich-Paris, B.; de Souza, B.; Neese, F.; Izsák, R.
     An improved chain of spheres for exchange algorithm
     J. Chem. Phys. 2021 155(10), 104109
     doi.org/10.1063/5.0058766
  7. Neese, F.
     The SHARK Integral Generation and Digestion System
     J. Comp. Chem. 2022 44(3), 381
     doi.org/10.1002/jcc.26942

List of suggested additional citations. These are papers that are important in the 'surrounding' of 
of this run, or papers that preceded the highly important papers. If you like your results we are grateful for a citation.

  1. Izsak, R.; Neese, F.
     An overlap fitted chain of spheres exchange method
     J. Chem. Phys. 2011 135 , 144105
     doi.org/10.1063/1.3646921
  2. Izsak, R.; Hansen, A.; Neese, F.
     The resolution of identity and chain of spheres approximations for the LPNO-CCSD singles Fock term
     Molec. Phys. 2012 110 , 2413-2417
     doi.org/10.1080/00268976.2012.687466
  3. Neese, F.
     The ORCA program system
     WIRES Comput. Molec. Sci. 2012 2(1), 73-78
     doi.org/10.1002/wcms.81
  4. Izsak, R.; Neese, F.; Klopper, W.
     Robust fitting techniques in the chain of spheres approximation to the Fock exchange: The role of the complementary space
     J. Chem. Phys. 2013 139 , 
     doi.org/10.1063/1.4819264
  5. Neese, F.
     Software update: the ORCA program system, version 4.0
     WIRES Comput. Molec. Sci. 2018 8(1), 1-6
     doi.org/10.1002/wcms.1327
  6. Neese, F.; Wennmohs, F.; Becker, U.; Riplinger, C.
     The ORCA quantum chemistry program package
     J. Chem. Phys. 2020 152(22), 224108
     doi.org/10.1063/5.0004608
  7. Neese, F.
     Software update: The ORCA program system—Version 5.0
     WIRES Comput. Molec. Sci. 2022 12(1), e1606
     doi.org/10.1002/wcms.1606

List of optional additional citations

  1. Neese, F.
     Approximate second-order SCF convergence for spin unrestricted wavefunctions
     Chem. Phys. Lett. 2000 325(1-3), 93-98
     doi.org/10.1016/s0009-2614(00)00662-x

Timings for individual modules:

Sum of individual times          ...     1084.715 sec (=  18.079 min)
Startup calculation              ...       17.432 sec (=   0.291 min)   1.6 %
SCF iterations                   ...      263.434 sec (=   4.391 min)  24.3 %
Property integrals               ...      125.568 sec (=   2.093 min)  11.6 %
SCF Response                     ...       96.405 sec (=   1.607 min)   8.9 %
Property calculations            ...      419.362 sec (=   6.989 min)  38.7 %
SCF Gradient evaluation          ...      162.355 sec (=   2.706 min)  15.0 %
Geometry relaxation              ...        0.160 sec (=   0.003 min)   0.0 %
                             ****ORCA TERMINATED NORMALLY****
TOTAL RUN TIME: 0 days 0 hours 18 minutes 9 seconds 391 msec
