
                                 *****************
                                 * O   R   C   A *
                                 *****************

                                            #,                                       
                                            ###                                      
                                            ####                                     
                                            #####                                    
                                            ######                                   
                                           ########,                                 
                                     ,,################,,,,,                         
                               ,,#################################,,                 
                          ,,##########################################,,             
                       ,#########################################, ''#####,          
                    ,#############################################,,   '####,        
                  ,##################################################,,,,####,       
                ,###########''''           ''''###############################       
              ,#####''   ,,,,##########,,,,          '''####'''          '####       
            ,##' ,,,,###########################,,,                        '##       
           ' ,,###''''                  '''############,,,                           
         ,,##''                                '''############,,,,        ,,,,,,###''
      ,#''                                            '''#######################'''  
     '                                                          ''''####''''         
             ,#######,   #######,   ,#######,      ##                                
            ,#'     '#,  ##    ##  ,#'     '#,    #''#        ,####,    ,#,          
            ##       ##  ##   ,#'  ##            #'  '#       #'       ,# #          
            ##       ##  #######   ##           ,######,      #####,      #          
            '#,     ,#'  ##    ##  '#,     ,#' ,#      #,     #,   #      #          
             '#######'   ##     ##  '#######'  #'      '#     '####' #    #          



                #########################################################
                #                        -***-                          #
                #          Department of theory and spectroscopy        #
                #                                                       #
                #                      Frank Neese                      #
                #                                                       #
                #     Directorship, Architecture, Infrastructure        #
                #                    SHARK, DRIVERS                     #
                #        Core code/Algorithms in most modules           #
                #                                                       #
                #        Max Planck Institute fuer Kohlenforschung      #
                #                Kaiser Wilhelm Platz 1                 #
                #                 D-45470 Muelheim/Ruhr                 #
                #                      Germany                          #
                #                                                       #
                #                  All rights reserved                  #
                #                        -***-                          #
                #########################################################


                         Program Version 6.1.1  -  RELEASE   -
                                (GIT: $487d211c$)
                          ($2025-11-21 10:33:24 +0100$)
                                                                         
                                  - NO-DMRG VERSION -                    
                                                                         


 With contributions from (in alphabetic order):
[Max-Planck-Institut fuer Kohlenforschung]                               
  Daniel Aravena         : Magnetic Suceptibility                        
  Michael Atanasov       : Ab Initio Ligand Field Theory (pilot matlab implementation)
  Alexander A. Auer      : GIAO ZORA, VPT2 properties, NMR spectrum      
  Ute Becker             : All parallelization in ORCA, NUMFREQ, NUMCALC 
  Giovanni Bistoni       : ED, misc. LED, open-shell LED, HFLD           
  Dmytro Bykov           : pre 5.0 version of the SCF Hessian            
  Marcos Casanova-Páez   : Triplet and SCS-CIS(D). UHF-(DLPNO)-IP/EA/STEOM-CCSD. UHF-CVS-IP/STEOM-CCSD   
  Vijay G. Chilkuri      : MRCI spin determinant printing, contributions to CSF-ICE 
  Pauline Colinet        : FMM embedding                                 
  Dipayan Datta          : RHF DLPNO-CCSD density                        
  Achintya Kumar Dutta   : EOM-CC, STEOM-CC                              
  Nicolas Foglia         : Exact transition moments, OPA infrastructure, MCD improvements    
  Dmitry Ganyushin       : Spin-Orbit,Spin-Spin,Magnetic field MRCI      
  Miquel Garcia-Rates    : C-PCM and meta-GGA Hessian, CCSD/C-PCM, Gaussian charge scheme 
  Tiago L. C. Gouveia    : GS-ROHF, GS-ROCIS                             
  Yang Guo               : DLPNO-NEVPT2, F12-NEVPT2, CIM, IAO-localization        
  Andreas Hansen         : Spin unrestricted coupled pair/coupled cluster methods 
  Ingolf Harden          : AUTO-CI MPn and infrastructure                
  Benjamin Helmich-Paris : MC-RPA, TRAH-(SCF,CASSCF), AVAS, COSX integrals, SCF dyn. polar., MC-PDFT, srDFT 
  Lee Huntington         : MR-EOM, pCC                                   
  Robert Izsak           : Overlap fitted RIJCOSX, COSX-SCS-MP3, EOM     
  Riya Kayal             : Wick's Theorem for AUTO-CI, AUTO-CI UHF-CCSDT 
  Emily Kempfer          : AUTO-CI RHF CISDT and CCSDT, approximate NEVPT4
  Christian Kollmar      : KDIIS, OOCD, Brueckner-CCSD(T), CCSD density, CASPT2, CASPT2-K, improved NEVPT2 
  Axel Koslowski         : Symmetry handling                             
  Simone Kossmann        : meta-GGA functionals, TD-DFT gradient, OOMP2, (MP2 Hessian; deprecated post 5.0) 
  Lucas Lang             : DCDCAS, Hyperfine gauge corrections, ICE-SOC+SSC
  Marvin Lechner         : AUTO-CI (C++ implementation), FIC-MRCC        
  Spencer Leger          : CASSCF response                               
  Dagmar Lenk            : GEPOL surface, SMD, ORCA-2-JSON               
  Dimitrios Liakos       : Extrapolation schemes; Compound Job, Property file
  Dimitrios Manganas     : Further ROCIS development; embedding schemes. LFT, Crystal Embedding 
  Dimitrios Pantazis     : SARC Basis sets                               
  Anastasios Papadopoulos: AUTO-CI, single reference methods and gradients 
  Taras Petrenko         : pre 6.0 DFT Hessian and TD-DFT gradient,  ECA, NRVS 
  Petra Pikulova         : Analytic Raman intensities                    
  Peter Pinski           : DLPNO-MP2, DLPNO-MP2 Gradient                 
  Shashank Vittal Rao    : ES-AILFT, MagRelax                            
  Christoph Reimann      : Effective Core Potentials                     
  Marius Retegan         : Local ZFS, SOC                                
  Christoph Riplinger    : Optimizer, TS searches, QM/MM, DLPNO-CCSD(T), (RO)-DLPNO pert. Triples 
  Michael Roemelt        : Original ROCIS implementation, recursive CI coupling coefficients
  Masaaki Saitow         : Open-shell DLPNO-CCSD energy and density      
  Barbara Sandhoefer     : DKH picture change effects                    
  Yorick L. A. Schmerwitz: GMF and freeze-and-release deltaSCF, NEB S-IDPP initial path                    
  Kantharuban Sivalingam : CASSCF convergence/infrastructure, NEVPT2, NEVPT3, NEVPT4(SD), FIC-MRCI and CEPA variants
  Bernardo de Souza      : ESD, SOC TD-DFT                               
  Georgi L. Stoychev     : AutoAux, RI-MP2 NMR, DLPNO-MP2 response, X2C  
  Van Anh Tran           : RI-MP2 g-tensors                              
  Willem Van den Heuvel  : Paramagnetic NMR                              
  Zikuan Wang            : NOTCH, Electric field optimization            
  Frank Wennmohs         : Technical directorship and infrastructure     
  Hang Xu                : AUTO-CI-Response properties                   
                                                                         
[FACCTs GmbH]                                                            
  Markus Bursch, Nicolas Foglia, Miquel Garcia-Rates, Ingolf Harden, Hagen Neugebauer, Anastasios Papadopoulos, 
  Christoph Riplinger, Bernardo de Souza, Georgi L. Stoychev                                                    
                                                                 
  APM, various basis sets, CI-OPT, improved COSX, DLPNO-Multilevel,           
  DOCKER, DRACO, updates on ESD, Fragmentator, GOAT, IRC, LR-CPCM, L-BFGS, MBIS, meta-GGA TD-DFT gradient, ML-optimized integration grids, 
  MM, NACMEs, nearIR, NEB, NEB-TS, NL-DFT gradient (VV10), 2- and 3-layer-ONIOM, interface openCOSMO-RS, QMMM,   
  Crystal-QMMM, RESP, rigid body optimization, SF, symmetry and pop. for TD-DFT, various functionals, SOLVATOR                                   
                                                                         
[Other institutions]                                                     
  V. Asgeirsson          : NEB                                           
  Christoph Bannwarth    : sTDA-DFT, sTD-DFT, PBEh-3c, B97-3c, D3        
  Giovanni Bistoni       : ETS/NOCV, ADLD/ADEX, COVALED                  
  Martin Brehm           : Molecular dynamics                            
  Ronald Cardenas        : ETS/NOCV                                      
  Martina Colucci        : COVALED                                       
  Sebastian Ehlert       : rSCAN, r2SCAN, r2SCAN-3c, D4, dhf basis sets  
  Marvin Friede          : D4 for Fr, Ra, Ac-Lr                          
  Lars Goerigk           : TD-DFT with DH, B97 family of functionals     
  Stefan Grimme          : VdW corrections, initial TS optimization, DFT functionals, gCP, sTDA/sTD-DF 
  Waldemar Hujo          : DFT-NL                                        
  H. Jonsson             : NEB                                           
  Holger Kruse           : gCP                                           
  Marcel Mueller         : wB97X-3c, vDZP basis set                      
  Hagen Neugebauer       : wr2SCAN, Native XTB                           
  Gianluca Regni         : ADLD/ADEX                                     
  Tobias Risthaus        : pre 6.0 range-separated hybrid DFT and stability analysis
  Lukas Wittmann         : regularized MP2, r2SCAN double-hybrids, wr2SCAN        
                                                                         
We gratefully acknowledge several colleagues who have allowed us to      
interface, adapt or use parts of their codes:                            
  Ed Valeev, F. Pavosevic, A. Kumar             : LibInt (2-el integral package), F12 methods 
  Garnet Chan, S. Sharma, J. Yang, R. Olivares  : DMRG                   
  Ulf Ekstrom                                   : XCFun DFT Library      
  Mihaly Kallay                                 : mrcc  (arbitrary order and MRCC methods)
  Frank Weinhold                                : gennbo (NPA and NBO analysis)           
  Simon Mueller                                 : openCOSMO-RS                            
  Christopher J. Cramer and Donald G. Truhlar   : smd solvation model                     
  S Lehtola, MJT Oliveira, MAL Marques          : LibXC Library                           
  Liviu Ungur et al                             : ANISO software                          


 Your calculation uses the libint2 library for the computation of 2-el integrals
 For citations please refer to: http://libint.valeyev.net

 Your ORCA version has been built with support for libXC version: 7.0.0
 For citations please refer to: https://libxc.gitlab.io

 This ORCA versions uses:
   CBLAS   interface :  Fast vector & matrix operations
   LAPACKE interface :  Fast linear algebra routines
   SCALAPACK package :  Parallel linear algebra routines
   Shared memory     :  Shared parallel matrices
   BLAS/LAPACK       :  OpenBLAS 0.3.29  USE64BITINT DYNAMIC_ARCH NO_AFFINITY Zen SINGLE_THREADED
        Core in use  :  Zen
   Copyright (c) 2011-2014, The OpenBLAS Project


  ***********************************
  * Starting time: Thu Apr 23 14:48:26 2026
  * Host name:     vmi3233575
  * Process ID:    1279729
  * Working dir.:  /root/b12_scan/jobs/hex_antiprism_nn1.70_perturb0
  ***********************************

NOTE: MaxCore=2500 MB was set to SCF,MP2,MDCI,CIPSI,MRCI,RASCI and CIS
      => If you want to overwrite this, your respective input block should be placed after the MaxCore statement
Your calculation utilizes the atom-pairwise dispersion correction
with the Becke-Johnson damping scheme (D3BJ)


================================================================================

----- Orbital basis set information -----
Your calculation utilizes the basis: def2-SVP
   F. Weigend and R. Ahlrichs, Phys. Chem. Chem. Phys. 7, 3297 (2005).

----- AuxJ basis set information -----
Your calculation utilizes the auxiliary basis: def2/J
   H-Rn: F. Weigend, Phys. Chem. Chem. Phys. 8, 1057 (2006).
   Fr-Lr: K. Eichkorn, F. Weigend, O. Treutler, R. Ahlrichs; Theor. Chem. Acc. 97, 119 (1997).

================================================================================
                                        WARNINGS
                       Please study these warnings very carefully!
================================================================================


WARNING: Geometry Optimization
  ===> : Switching off AutoStart
         For restart on a previous wavefunction, please use MOREAD

================================================================================
                                       INPUT FILE
================================================================================
NAME = hex_antiprism_nn1.70_perturb0.inp
|  1> ! BP86 def2-SVP def2/J RI Opt TightSCF D3BJ
|  2> ! SlowConv
|  3> 
|  4> %pal nprocs 8 end
|  5> %maxcore 2500
|  6> 
|  7> %geom
|  8>   MaxIter 300
|  9> end
| 10> 
| 11> * xyz 0 1
| 12> B      1.80295524     -0.01981573      0.80970168
| 13> B      0.90778287      1.46472180      0.76787754
| 14> B     -0.69644785      1.68713435      0.60807800
| 15> B     -1.97390893     -0.09349117      0.71983718
| 16> B     -1.24080247     -1.57789095      0.52675164
| 17> B      0.78220775     -1.62671105      0.66619326
| 18> B      1.60681678      1.04842486     -0.73291848
| 19> B      0.20496952      1.68431651     -0.66091177
| 20> B     -1.40955168      0.90614970     -0.82516317
| 21> B     -1.68333101     -0.96070673     -0.68060901
| 22> B     -0.15144273     -1.81547204     -0.73752203
| 23> B      1.62619904     -0.85984898     -0.66033238
| 24> *
| 25> 
| 26>                          ****END OF INPUT****
================================================================================

                       *****************************
                       * Geometry Optimization Run *
                       *****************************

Geometry optimization settings:
Update method            Update   .... BFGS
Choice of coordinates    CoordSys .... (2022) Redundant Internals
Initial Hessian          InHess   .... Almloef's Model
Max. no of cycles        MaxIter  .... 300

Convergence Tolerances:
Energy Change            TolE     ....  5.0000e-06 Eh
Max. Gradient            TolMAXG  ....  3.0000e-04 Eh/bohr
RMS Gradient             TolRMSG  ....  1.0000e-04 Eh/bohr
Max. Displacement        TolMAXD  ....  4.0000e-03 bohr
RMS Displacement         TolRMSD  ....  2.0000e-03 bohr
Strict Convergence                .... False

------------------------------------------------------------------------------
                        ORCA OPTIMIZATION COORDINATE SETUP
------------------------------------------------------------------------------

The optimization will be done in redundant internal coordinates (2022)
Making redundant internal coordinates   ...  (2022 redundants) done
Evaluating the initial hessian          ...  (Almloef) done
Evaluating the coordinates              ...  done
Calculating the B-matrix                .... done
Calculating the G-matrix                .... done
The number of degrees of freedom        ....  219

    -----------------------------------------------------------------
                    Redundant Internal Coordinates


    -----------------------------------------------------------------
         Definition                    Initial Value    Approx d2E/dq
    -----------------------------------------------------------------
      1. B(B   1,B   0)                  1.7341         0.236843   
      2. B(B   2,B   1)                  1.6274         0.350392   
      3. B(B   4,B   3)                  1.6668         0.303237   
      4. B(B   5,B   4)                  2.0284         0.080325   
      5. B(B   5,B   0)                  1.9091         0.124507   
      6. B(B   6,B   1)                  1.7071         0.261451   
      7. B(B   6,B   0)                  1.8866         0.135229   
      8. B(B   7,B   6)                  1.5410         0.481330   
      9. B(B   7,B   2)                  1.5566         0.454599   
     10. B(B   7,B   1)                  1.6074         0.377215   
     11. B(B   8,B   7)                  1.7998         0.186037   
     12. B(B   8,B   3)                  1.9248         0.117531   
     13. B(B   8,B   2)                  1.7812         0.199185   
     14. B(B   9,B   4)                  1.4263         0.733471   
     15. B(B   9,B   3)                  1.6726         0.296776   
     16. B(B   9,B   8)                  1.8924         0.132404   
     17. B(B  10,B   9)                  1.7551         0.219181   
     18. B(B  10,B   5)                  1.6964         0.271983   
     19. B(B  10,B   4)                  1.6857         0.282895   
     20. B(B  11,B  10)                  2.0197         0.082933   
     21. B(B  11,B   6)                  1.9098         0.124206   
     22. B(B  11,B   5)                  1.7493         0.223936   
     23. B(B  11,B   0)                  1.7023         0.266124   
     24. A(B   1,B   0,B   5)          116.2803         0.290364   
     25. A(B   5,B   0,B   6)          111.0721         0.266375   
     26. A(B   1,B   0,B  11)          110.3668         0.328138   
     27. A(B   6,B   0,B  11)           64.0568         0.299649   
     28. A(B   1,B   0,B   6)           56.0727         0.294164   
     29. A(B   5,B   0,B  11)           57.6031         0.295748   
     30. A(B   0,B   1,B   7)          111.3535         0.347785   
     31. A(B   0,B   1,B   6)           66.4876         0.327181   
     32. A(B   6,B   1,B   7)           55.3123         0.353641   
     33. A(B   2,B   1,B   7)           57.5228         0.371773   
     34. A(B   2,B   1,B   6)          110.5265         0.349259   
     35. A(B   0,B   1,B   2)          128.9202         0.343501   
     36. A(B   1,B   2,B   8)          114.4394         0.333719   
     37. A(B   7,B   2,B   8)           64.8531         0.348574   
     38. A(B   1,B   2,B   7)           60.5907         0.383972   
     39. A(B   8,B   3,B   9)           63.0168         0.298165   
     40. A(B   4,B   3,B   9)           50.5699         0.348212   
     41. A(B   4,B   3,B   8)          103.9205         0.299187   
     42. A(B   5,B   4,B  10)           53.3905         0.278830   
     43. A(B   3,B   4,B   5)          116.8808         0.281837   
     44. A(B   9,B   4,B  10)           68.0762         0.402163   
     45. A(B   3,B   4,B  10)          119.7779         0.345417   
     46. A(B   3,B   4,B   9)           64.9280         0.407123   
     47. A(B   5,B   4,B   9)          112.2119         0.324513   
     48. A(B  10,B   5,B  11)           71.7500         0.326291   
     49. A(B   4,B   5,B  11)          114.7405         0.269050   
     50. A(B   0,B   5,B  11)           55.2532         0.287826   
     51. A(B   4,B   5,B  10)           52.9065         0.277148   
     52. A(B   0,B   5,B  10)          116.7522         0.296769   
     53. A(B   0,B   5,B   4)          121.2093         0.246649   
     54. A(B   0,B   6,B   7)          106.8590         0.329885   
     55. A(B   7,B   6,B  11)          114.8209         0.325294   
     56. A(B   0,B   6,B  11)           53.2791         0.266278   
     57. A(B   1,B   6,B  11)          102.3808         0.294807   
     58. A(B   0,B   6,B   1)           57.4397         0.298806   
     59. A(B   1,B   6,B   7)           59.0559         0.368650   
     60. A(B   1,B   7,B   2)           61.8865         0.388938   
     61. A(B   6,B   7,B   8)          129.2996         0.347919   
     62. A(B   2,B   7,B   8)           63.6206         0.344592   
     63. A(B   1,B   7,B   8)          114.4748         0.334022   
     64. A(B   2,B   7,B   6)          124.4474         0.405949   
     65. A(B   1,B   7,B   6)           65.6318         0.392842   
     66. A(B   3,B   8,B   7)          114.4765         0.277183   
     67. A(B   2,B   8,B   7)           51.5263         0.301048   
     68. A(B   2,B   8,B   3)           72.4953         0.280114   
     69. A(B   7,B   8,B   9)          123.3228         0.282327   
     70. A(B   3,B   8,B   9)           51.9689         0.263241   
     71. A(B   2,B   8,B   9)          115.4047         0.285338   
     72. A(B   8,B   9,B  10)          110.5909         0.289636   
     73. A(B   4,B   9,B  10)           62.9950         0.384588   
     74. A(B   3,B   9,B  10)          115.5483         0.329850   
     75. A(B   4,B   9,B   8)          116.5287         0.352719   
     76. A(B   3,B   9,B   8)           65.0143         0.303882   
     77. A(B   3,B   9,B   4)           64.5021         0.405576   
     78. A(B   5,B  10,B  11)           55.3414         0.278513   
     79. A(B   4,B  10,B  11)          118.2578         0.280208   
     80. A(B   9,B  10,B  11)          122.4476         0.269478   
     81. A(B   5,B  10,B   9)          113.5371         0.325141   
     82. A(B   4,B  10,B   9)           48.9288         0.327253   
     83. A(B   4,B  10,B   5)           73.7030         0.339181   
     84. A(B   5,B  11,B   6)          117.5141         0.287717   
     85. A(B   0,B  11,B   6)           62.6641         0.295634   
     86. A(B   0,B  11,B   5)           67.1438         0.325124   
     87. A(B   6,B  11,B  10)          117.5421         0.247707   
     88. A(B   5,B  11,B  10)           52.9086         0.270357   
     89. A(B   0,B  11,B  10)          110.9697         0.277582   
     90. D(B   2,B   1,B   0,B  11)     62.3619         0.010000   
     91. D(B   6,B   1,B   0,B  11)    -35.6963         0.010000   
     92. D(B   7,B   1,B   0,B   5)    -65.4602         0.010000   
     93. D(B   2,B   1,B   0,B   6)     98.0581         0.010000   
     94. D(B   2,B   1,B   0,B   5)     -0.6327         0.010000   
     95. D(B   6,B   1,B   0,B   5)    -98.6909         0.010000   
     96. D(B   7,B   2,B   1,B   6)    -16.5323         0.010000   
     97. D(B   8,B   2,B   1,B   7)     37.6293         0.010000   
     98. D(B   7,B   2,B   1,B   0)    -92.3384         0.010000   
     99. D(B   8,B   2,B   1,B   6)     21.0970         0.010000   
    100. D(B   8,B   2,B   1,B   0)    -54.7091         0.010000   
    101. D(B  10,B   4,B   3,B   8)      6.0445         0.010000   
    102. D(B   5,B   4,B   3,B   8)     67.3417         0.010000   
    103. D(B   5,B   4,B   3,B   9)    103.3422         0.010000   
    104. D(B   9,B   4,B   3,B   8)    -36.0006         0.010000   
    105. D(B  10,B   4,B   3,B   9)     42.0450         0.010000   
    106. D(B  11,B   5,B   4,B   3)    -69.8103         0.010000   
    107. D(B  10,B   5,B   0,B  11)    -39.0614         0.010000   
    108. D(B  10,B   5,B   4,B   9)    -36.3142         0.010000   
    109. D(B   0,B   5,B   4,B   3)     -6.8472         0.010000   
    110. D(B   0,B   5,B   4,B   9)     65.3234         0.010000   
    111. D(B  10,B   5,B   4,B   3)   -108.4848         0.010000   
    112. D(B  10,B   5,B   0,B   6)     -2.1674         0.010000   
    113. D(B  10,B   5,B   0,B   1)     59.3544         0.010000   
    114. D(B   4,B   5,B   0,B  11)   -100.0949         0.010000   
    115. D(B   0,B   5,B   4,B  10)    101.6376         0.010000   
    116. D(B   4,B   5,B   0,B   1)     -1.6790         0.010000   
    117. D(B   4,B   5,B   0,B   6)    -63.2009         0.010000   
    118. D(B   1,B   6,B   0,B   5)    108.2202         0.010000   
    119. D(B   1,B   6,B   0,B  11)    142.5325         0.010000   
    120. D(B   7,B   6,B   0,B   1)    -33.7985         0.010000   
    121. D(B  11,B   6,B   1,B   2)    -94.7102         0.010000   
    122. D(B   7,B   6,B   1,B   2)     16.9741         0.010000   
    123. D(B   7,B   6,B   1,B   0)    141.6318         0.010000   
    124. D(B   0,B   6,B   1,B   2)   -124.6577         0.010000   
    125. D(B  11,B   6,B   0,B   1)   -142.5325         0.010000   
    126. D(B   7,B   6,B   0,B  11)    108.7340         0.010000   
    127. D(B  11,B   6,B   1,B   0)     29.9475         0.010000   
    128. D(B   7,B   6,B   0,B   5)     74.4217         0.010000   
    129. D(B   0,B   6,B   1,B   7)   -141.6318         0.010000   
    130. D(B   8,B   7,B   6,B   0)    -69.3956         0.012596   
    131. D(B   2,B   7,B   6,B   1)    -20.2818         0.012596   
    132. D(B   1,B   7,B   6,B  11)     89.8937         0.012596   
    133. D(B   6,B   7,B   2,B   8)   -121.1405         0.010584   
    134. D(B   6,B   7,B   2,B   1)     20.9771         0.010584   
    135. D(B   1,B   7,B   2,B   8)   -142.1176         0.010584   
    136. D(B   8,B   7,B   1,B   2)    -37.1867         0.010000   
    137. D(B   2,B   7,B   6,B   0)     12.8554         0.012596   
    138. D(B   8,B   7,B   1,B   0)     86.2316         0.010000   
    139. D(B   6,B   7,B   1,B   2)   -161.0895         0.010000   
    140. D(B   1,B   7,B   6,B   0)     33.1372         0.012596   
    141. D(B   2,B   7,B   1,B   0)    123.4182         0.010000   
    142. D(B   6,B   7,B   1,B   0)    -37.6712         0.010000   
    143. D(B   2,B   7,B   6,B  11)     69.6119         0.012596   
    144. D(B   8,B   7,B   2,B   1)    142.1176         0.010584   
    145. D(B   2,B   7,B   1,B   6)    161.0895         0.010000   
    146. D(B   9,B   8,B   2,B   1)     77.5562         0.010000   
    147. D(B   7,B   8,B   2,B   1)    -35.9840         0.010000   
    148. D(B   3,B   8,B   2,B   7)    143.6632         0.010000   
    149. D(B   3,B   8,B   2,B   1)    107.6792         0.010000   
    150. D(B   9,B   8,B   2,B   7)    113.5402         0.010000   
    151. D(B   2,B   8,B   3,B   9)   -144.8635         0.010000   
    152. D(B   2,B   8,B   3,B   4)   -114.2348         0.010000   
    153. D(B   9,B   8,B   7,B   1)    -61.1451         0.010000   
    154. D(B   3,B   8,B   7,B   2)    -38.3812         0.010000   
    155. D(B   3,B   8,B   7,B   1)     -1.8639         0.010000   
    156. D(B   2,B   8,B   7,B   6)    114.2043         0.010000   
    157. D(B   2,B   8,B   7,B   1)     36.5173         0.010000   
    158. D(B   9,B   8,B   3,B   4)     30.6287         0.010000   
    159. D(B   3,B   8,B   7,B   6)     75.8230         0.010000   
    160. D(B   7,B   8,B   3,B   9)   -114.2200         0.010000   
    161. D(B   7,B   8,B   3,B   4)    -83.5913         0.010000   
    162. D(B  10,B   9,B   8,B   2)    -72.0443         0.010000   
    163. D(B   4,B   9,B   8,B   3)    -40.2311         0.010000   
    164. D(B   4,B   9,B   8,B   2)     -2.8125         0.010000   
    165. D(B   3,B   9,B   8,B   7)     96.6193         0.010000   
    166. D(B   3,B   9,B   8,B   2)     37.4186         0.010000   
    167. D(B  10,B   9,B   4,B   3)    141.2004         0.029534   
    168. D(B   8,B   9,B   4,B  10)   -100.7643         0.029534   
    169. D(B   8,B   9,B   4,B   5)    -69.9379         0.029534   
    170. D(B   8,B   9,B   4,B   3)     40.4361         0.029534   
    171. D(B   3,B   9,B   4,B  10)   -141.2004         0.029534   
    172. D(B   3,B   9,B   4,B   5)   -110.3740         0.029534   
    173. D(B  10,B   9,B   3,B   8)    101.9642         0.010000   
    174. D(B  10,B   9,B   3,B   4)    -38.2272         0.010000   
    175. D(B   4,B   9,B   8,B   7)     56.3882         0.010000   
    176. D(B   8,B   9,B   3,B   4)   -140.1914         0.010000   
    177. D(B   4,B   9,B   3,B   8)    140.1914         0.010000   
    178. D(B  11,B  10,B   9,B   3)    -62.1399         0.010000   
    179. D(B   5,B  10,B   9,B   8)     71.8998         0.010000   
    180. D(B   5,B  10,B   9,B   4)    -38.2240         0.010000   
    181. D(B   4,B  10,B   9,B   8)    110.1238         0.010000   
    182. D(B   4,B  10,B   9,B   3)     38.8190         0.010000   
    183. D(B  11,B  10,B   5,B   0)     33.0389         0.010000   
    184. D(B   9,B  10,B   5,B  11)   -114.2247         0.010000   
    185. D(B   9,B  10,B   5,B   4)     29.0773         0.010000   
    186. D(B   9,B  10,B   5,B   0)    -81.1858         0.010000   
    187. D(B   4,B  10,B   5,B  11)   -143.3020         0.010000   
    188. D(B   4,B  10,B   5,B   0)   -110.2631         0.010000   
    189. D(B  11,B  10,B   4,B   5)    -33.9219         0.010000   
    190. D(B  11,B  10,B   4,B   3)     69.0132         0.010000   
    191. D(B   5,B  10,B   9,B   3)      0.5950         0.010000   
    192. D(B   9,B  10,B   4,B   5)   -143.7715         0.010000   
    193. D(B   9,B  10,B   4,B   3)    -40.8364         0.010000   
    194. D(B   5,B  10,B   4,B   9)    143.7715         0.010000   
    195. D(B   5,B  10,B   4,B   3)    102.9352         0.010000   
    196. D(B   0,B  11,B  10,B   5)    -35.7825         0.010000   
    197. D(B   0,B  11,B  10,B   4)      4.8489         0.010000   
    198. D(B  10,B  11,B   6,B   0)    100.6479         0.010000   
    199. D(B   5,B  11,B   6,B   1)      8.6735         0.010000   
    200. D(B   5,B  11,B   6,B   0)     40.3355         0.010000   
    201. D(B   0,B  11,B   6,B   7)    -93.0746         0.010000   
    202. D(B  10,B  11,B   5,B   0)   -143.6649         0.010000   
    203. D(B   6,B  11,B   5,B  10)    105.0579         0.010000   
    204. D(B   6,B  11,B   5,B   4)     73.3998         0.010000   
    205. D(B   6,B  11,B   5,B   0)    -38.6070         0.010000   
    206. D(B   0,B  11,B   5,B  10)    143.6649         0.010000   
    207. D(B   0,B  11,B   6,B   1)    -31.6620         0.010000   
    208. D(B   0,B  11,B   5,B   4)    112.0068         0.010000   
    209. D(B  10,B  11,B   0,B   5)     30.4077         0.010000   
    210. D(B  10,B  11,B   0,B   1)    -78.4840         0.010000   
    211. D(B   5,B  11,B   6,B   7)    -52.7391         0.010000   
    212. D(B   6,B  11,B   0,B   5)    141.4667         0.010000   
    213. D(B   6,B  11,B   0,B   1)     32.5750         0.010000   
    214. D(B   5,B  11,B   0,B   6)   -141.4667         0.010000   
    215. D(B   0,B  11,B  10,B   9)     62.0193         0.010000   
    216. D(B   5,B  11,B   0,B   1)   -108.8917         0.010000   
    217. D(B   6,B  11,B  10,B   4)    -64.3722         0.010000   
    218. D(B   5,B  11,B  10,B   9)     97.8018         0.010000   
    219. D(B   5,B  11,B  10,B   4)     40.6314         0.010000   
    -----------------------------------------------------------------

Number of atoms                         .... 12
Number of degrees of freedom            .... 219


         *************************************************************
         *                GEOMETRY OPTIMIZATION CYCLE   1            *
         *************************************************************
---------------------------------
CARTESIAN COORDINATES (ANGSTROEM)
---------------------------------
  B      1.802955   -0.019816    0.809702
  B      0.907783    1.464722    0.767878
  B     -0.696448    1.687134    0.608078
  B     -1.973909   -0.093491    0.719837
  B     -1.240802   -1.577891    0.526752
  B      0.782208   -1.626711    0.666193
  B      1.606817    1.048425   -0.732918
  B      0.204970    1.684317   -0.660912
  B     -1.409552    0.906150   -0.825163
  B     -1.683331   -0.960707   -0.680609
  B     -0.151443   -1.815472   -0.737522
  B      1.626199   -0.859849   -0.660332

----------------------------
CARTESIAN COORDINATES (A.U.)
----------------------------
  NO LB      ZA    FRAG     MASS         X           Y           Z
   0 B     5.0000    0    10.810    3.407092   -0.037446    1.530114
   1 B     5.0000    0    10.810    1.715461    2.767923    1.451078
   2 B     5.0000    0    10.810   -1.316096    3.188222    1.149101
   3 B     5.0000    0    10.810   -3.730147   -0.176673    1.360295
   4 B     5.0000    0    10.810   -2.344777   -2.981782    0.995416
   5 B     5.0000    0    10.810    1.478158   -3.074038    1.258923
   6 B     5.0000    0    10.810    3.036444    1.981236   -1.385015
   7 B     5.0000    0    10.810    0.387336    3.182897   -1.248942
   8 B     5.0000    0    10.810   -2.663667    1.712375   -1.559332
   9 B     5.0000    0    10.810   -3.181035   -1.815473   -1.286165
  10 B     5.0000    0    10.810   -0.286185   -3.430745   -1.393715
  11 B     5.0000    0    10.810    3.073071   -1.624879   -1.247847

--------------------------------
INTERNAL COORDINATES (ANGSTROEM)
--------------------------------
 B      0   0   0     0.000000000000     0.00000000     0.00000000
 B      1   0   0     1.734051472326     0.00000000     0.00000000
 B      2   1   0     1.627439534475   128.92020496     0.00000000
 B      3   2   1     2.194316332643   117.25592664     9.00425668
 B      4   3   2     1.666784273478   117.43366252   343.09095482
 B      1   2   3     1.909092107362   116.28027347   359.36727081
 B      2   1   3     1.707143884748    66.48759529   261.94185440
 B      7   2   1     1.541012296250    59.05588425   141.63184139
 B      3   2   1     1.781189026263   114.43941548   305.29088554
 B      5   4   3     1.426347646719    64.92801523   271.31039235
 B      5   4   3     1.685686011722   119.77790471   313.35544145
 B      1   2   3     1.702321577407   110.36679269    62.36189066

---------------------------
INTERNAL COORDINATES (A.U.)
---------------------------
 B      0   0   0     0.000000000000     0.00000000     0.00000000
 B      1   0   0     3.276882384819     0.00000000     0.00000000
 B      2   1   0     3.075415019675   128.92020496     0.00000000
 B      3   2   1     4.146656919886   117.25592664     9.00425668
 B      4   3   2     3.149765801201   117.43366252   343.09095482
 B      1   2   3     3.607661247344   116.28027347   359.36727081
 B      2   1   3     3.226034413371    66.48759529   261.94185440
 B      7   2   1     2.912091208918    59.05588425   141.63184139
 B      3   2   1     3.365959452383   114.43941548   305.29088554
 B      5   4   3     2.695406424061    64.92801523   271.31039235
 B      5   4   3     3.185484909936   119.77790471   313.35544145
 B      1   2   3     3.216921573163   110.36679269    62.36189066

---------------------
BASIS SET INFORMATION
---------------------
There are 1 groups of distinct atoms

 Group   1 Type B   : 7s4p1d contracted to 3s2p1d pattern {511/31/1}

Atom   0B    basis set group =>   1
Atom   1B    basis set group =>   1
Atom   2B    basis set group =>   1
Atom   3B    basis set group =>   1
Atom   4B    basis set group =>   1
Atom   5B    basis set group =>   1
Atom   6B    basis set group =>   1
Atom   7B    basis set group =>   1
Atom   8B    basis set group =>   1
Atom   9B    basis set group =>   1
Atom  10B    basis set group =>   1
Atom  11B    basis set group =>   1
---------------------------------
AUXILIARY/J BASIS SET INFORMATION
---------------------------------
There are 1 groups of distinct atoms

 Group   1 Type B   : 12s5p4d2f1g contracted to 6s4p3d1f1g pattern {711111/2111/211/2/1}

Atom   0B    basis set group =>   1
Atom   1B    basis set group =>   1
Atom   2B    basis set group =>   1
Atom   3B    basis set group =>   1
Atom   4B    basis set group =>   1
Atom   5B    basis set group =>   1
Atom   6B    basis set group =>   1
Atom   7B    basis set group =>   1
Atom   8B    basis set group =>   1
Atom   9B    basis set group =>   1
Atom  10B    basis set group =>   1
Atom  11B    basis set group =>   1


           ************************************************************
           *        Program running with 8 parallel MPI-processes     *
           *              working on a common directory               *
           ************************************************************
------------------------------------------------------------------------------
                             ORCA STARTUP CALCULATIONS
                           -- RI-GTO INTEGRALS CHOSEN --
------------------------------------------------------------------------------
------------------------------------------------------------------------------
                   ___                                                        
                  /   \      - P O W E R E D   B Y -                         
                 /     \                                                     
                 |  |  |   _    _      __       _____    __    __             
                 |  |  |  | |  | |    /  \     |  _  \  |  |  /  |          
                  \  \/   | |  | |   /    \    | | | |  |  | /  /          
                 / \  \   | |__| |  /  /\  \   | |_| |  |  |/  /          
                |  |  |   |  __  | /  /__\  \  |    /   |      \           
                |  |  |   | |  | | |   __   |  |    \   |  |\   \          
                \     /   | |  | | |  |  |  |  | |\  \  |  | \   \       
                 \___/    |_|  |_| |__|  |__|  |_| \__\ |__|  \__/        
                                                                              
                      - O R C A' S   B I G   F R I E N D -                    
                                      &                                       
                       - I N T E G R A L  F E E D E R -                       
                                                                              
 v1 FN, 2020, v2 2021, v3 2022-2024                                           
------------------------------------------------------------------------------


----------------------
SHARK INTEGRAL PACKAGE
----------------------

Number of atoms                             ...     12
Number of basis functions                   ...    168
Number of shells                            ...     72
Maximum angular momentum                    ...      2
Integral batch strategy                     ... SHARK/LIBINT Hybrid
RI-J (if used) integral strategy            ... SPLIT-RIJ (Revised 2003 algorithm where possible)
Printlevel                                  ...      1
Contraction scheme used                     ... SEGMENTED contraction
Prescreening option                         ... SCHWARTZ
   Thresh                                   ... 2.500e-11
   Tcut                                     ... 2.500e-12
   Tpresel                                  ... 2.500e-12 
Coulomb Range Separation                    ... NOT USED
Exchange Range Separation                   ... NOT USED
Multipole approximations                    ... NOT USED
Finite Nucleus Model                        ... NOT USED
CABS basis                                  ... NOT available
Auxiliary Coulomb fitting basis             ... AVAILABLE
   # of basis functions in Aux-J            ...    588
   # of shells in Aux-J                     ...    180
   Maximum angular momentum in Aux-J        ...      4
Auxiliary J/K fitting basis                 ... NOT available
Auxiliary Correlation fitting basis         ... NOT available
Auxiliary 'external' fitting basis          ... NOT available

Checking pre-screening integrals            ... done (  0.0 sec) Dimension = 72
   => SHARK Basis and OBASIS are compatible. Storing Pre-screening
Shell pair information
Shell pair cut-off parameter TPreSel        ...   2.5e-12
Total number of shell pairs                 ...      2628
Shell pairs after pre-screening             ...      2586
Total number of primitive shell pairs       ...     10596
Primitive shell pairs kept                  ...      7954
          la=0 lb=0:    624 shell pairs
          la=1 lb=0:    864 shell pairs
          la=1 lb=1:    300 shell pairs
          la=2 lb=0:    432 shell pairs
          la=2 lb=1:    288 shell pairs
          la=2 lb=2:     78 shell pairs

Checking whether 4 symmetric matrices of dimension 168 fit in memory
:Max Core in MB      =   2500.00
 MB in use           =      6.92
 MB left             =   2493.08
 MB needed           =      0.43
 Data fit in memory  = YES
Calculating RI/J V-Matrix + Cholesky decomp.... done (  0.0 sec)
Calculating Nuclear repulsion               ... done (  0.0 sec) ENN=    348.358753205783 Eh

Diagonalization of the overlap matrix:
Smallest eigenvalue                        ... 1.364e-04
Time for diagonalization                   ...    0.003 sec
Threshold for overlap eigenvalues          ... 1.000e-07
Number of eigenvalues below threshold      ... 0
Time for construction of square roots      ...    0.002 sec
Total time needed                          ...    0.006 sec

-------------------
DFT GRID GENERATION
-------------------

General Integration Accuracy     IntAcc      ... 4.388
Radial Grid Type                 RadialGrid  ... OptM3 with GC (2021)
Angular Grid (max. ang.)         AngularGrid ... 4 (Lebedev-302)
Angular grid pruning method      GridPruning ... 4 (adaptive)
Weight generation scheme         WeightScheme... mBecke (2022)
Basis function cutoff            BFCut       ... 1.0000e-11
Integration weight cutoff        WCut        ... 1.0000e-14
Partially contracted basis set               ... off
Rotationally invariant grid construction     ... off
Angular grids for H and He will be reduced by one unit

Total number of grid points                  ...    70861
Total number of batches                      ...     1114
Average number of points per batch           ...       63
Average number of grid points per atom       ...     5905
Grids setup in   0.6 sec
Initializing property integral containers    ... done (  0.0 sec)

SHARK setup successfully completed in   0.8 seconds

Maximum memory used throughout the entire STARTUP-calculation: 19.9 MB


           ************************************************************
           *        Program running with 8 parallel MPI-processes     *
           *              working on a common directory               *
           ************************************************************
-------------------------------------------------------------------------------
                                 ORCA GUESS
                   Start orbitals & Density for SCF / CASSCF
-------------------------------------------------------------------------------

------------
SCF SETTINGS
------------
Hamiltonian:
 Density Functional     Method          .... DFT(GTOs)
 Exchange Functional    Exchange        .... B88
   X-Alpha parameter    XAlpha          ....  0.666667
   Becke's b parameter  XBeta           ....  0.004200
 Correlation Functional Correlation     .... P86
 LDA part of GGA corr.  LDAOpt          .... PW91-LDA
 Gradients option       PostSCFGGA      .... off
   NL short-range parameter             ....  4.400000
 RI-approximation to the Coulomb term is turned on
   Number of AuxJ basis functions       .... 588


General Settings:
 Integral files         IntName         .... hex_antiprism_nn1.70_perturb0
 Hartree-Fock type      HFTyp           .... RHF
 Total Charge           Charge          ....    0
 Multiplicity           Mult            ....    1
 Number of Electrons    NEL             ....   60
 Basis Dimension        Dim             ....  168
 Nuclear Repulsion      ENuc            ....    348.3587532058 Eh

Convergence Acceleration:
 AO-DIIS                CNVDIIS         .... on
   Start iteration      DIISMaxIt       ....     0
   Startup error        DIISStart       ....  0.200000
   # of expansion vecs  DIISMaxEq       ....     5
   Bias factor          DIISBfac        ....   1.050
   Max. coefficient     DIISMaxC        ....  10.000
 MO-DIIS                CNVKDIIS        .... off
 Trust-Rad. Augm. Hess. CNVTRAH         .... auto
   Auto Start mean grad. ratio tolernc. ....  1.125000
   Auto Start start iteration           ....    50
   Auto Start num. interpolation iter.  ....    10
   Max. Number of Micro iterations      ....    24
   Max. Number of Macro iterations      .... Maxiter - #DIIS iter
   Number of Davidson start vectors     ....     2
   Converg. threshold    (grad. norm)   ....   1.000e-05
   Grad. Scal. Fac. for Micro threshold ....   0.100
   Minimum threshold for Micro iter.    ....   1.000e-02
   NR start threshold (gradient norm)   ....   1.000e-04
   Initial trust radius                 ....   0.400
   Minimum AH scaling param. (alpha)    ....   1.000
   Maximum AH scaling param. (alpha)    .... 1000.000
   Quad. conv. algorithm                .... NR
   White noise on init. David. guess    .... on
   Maximum white noise                  ....   0.010
   Pseudo random numbers                .... off
   Inactive MOs                         .... canonical
   Orbital update algorithm             .... Taylor
   Preconditioner                       .... Diag
   Full preconditioner red. dimension   ....   250
 SOSCF                 CNVSOSCF           .... on
   Start iteration     SOSCFMaxIt         ....   150
   Startup grad/error  SOSCFStart         ....  0.001000
   Hessian update      SOSCFHessUp        .... L-BFGS
   Autom. constraints  SOSCFAutoConstrain .... off
 Level Shifting         CNVShift        .... on
   Level shift para.    LevelShift      ....    0.2500
   Turn off err/grad.   ShiftErr        ....    0.0000
 Zerner damping         CNVZerner       .... off
 Static damping         CNVDamp         .... on
   Fraction old density DampFac         ....    0.8500
   Max. Damping (<1)    DampMax         ....    0.9800
   Min. Damping (>=0)   DampMin         ....    0.0000
   Turn off err/grad.   DampErr         ....    0.0300

SCF Procedure:
 Maximum # iterations   MaxIter         ....   125
 SCF integral mode      SCFMode         .... Direct
   Integral package                     .... SHARK and LIBINT hybrid scheme
 Reset frequency        DirectResetFreq ....    20
 Integral Threshold     Thresh          ....  2.500e-11 Eh
 Primitive CutOff       TCut            ....  2.500e-12 Eh

Convergence Tolerance:
 Convergence Check Mode ConvCheckMode   .... Total+1el-Energy
 Convergence forced     ConvForced      .... 0
 Energy Change          TolE            ....  1.000e-08 Eh
 1-El. energy change                    ....  1.000e-05 Eh
 Orbital Gradient       TolG            ....  1.000e-05
 Orbital Rotation angle TolX            ....  1.000e-05
 DIIS Error             TolErr          ....  5.000e-07

------------------------------
INITIAL GUESS: MODEL POTENTIAL
------------------------------
Loading Hartree-Fock densities                     ... done
Calculating cut-offs                               ... done
Initializing the effective Hamiltonian             ... done
Setting up the integral package (SHARK)            ... done
Starting the Coulomb interaction                   ... done (   0.0 sec)
Making the grid                                    ... done (   0.1 sec)
Mapping shells                                     ... done
Starting the XC term evaluation                    ... done (   0.0 sec)
  promolecular density results
     # of electrons  =     59.997307207
     EX              =    -45.761468306
     EC              =     -1.997856135
     EX+EC           =    -47.759324441
Transforming the Hamiltonian                       ... done (   0.0 sec)
Diagonalizing the Hamiltonian                      ... done (   0.0 sec)
Back transforming the eigenvectors                 ... done (   0.0 sec)
Now organizing SCF variables                       ... done
                      ------------------
                      INITIAL GUESS DONE (   0.2 sec)
                      ------------------
             **** ENERGY FILE WAS UPDATED (hex_antiprism_nn1.70_perturb0.en.tmp) ****
Finished Guess after   0.7 sec
Maximum memory used throughout the entire GUESS-calculation: 9.7 MB


           ************************************************************
           *        Program running with 8 parallel MPI-processes     *
           *              working on a common directory               *
           ************************************************************

-------------------------------------------------------------------------------------------
                                      ORCA LEAN-SCF
                              memory conserving SCF solver
-------------------------------------------------------------------------------------------

----------------------------------------D-I-I-S--------------------------------------------
Iteration    Energy (Eh)           Delta-E    RMSDP     MaxDP     DIISErr   Damp  Time(sec)
-------------------------------------------------------------------------------------------
               ***  Starting incremental Fock matrix formation  ***
    1    -296.9334740240830115     0.00e+00  1.32e-02  1.02e-01  1.37e-01  0.850   0.3
Warning: op=0 Small HOMO/LUMO gap (  -0.021) - skipping pre-diagonalization
         Will do a full diagonalization
    2    -297.0909371290509853    -1.57e-01  1.42e-02  9.35e-02  1.01e-01  0.850   0.3
                               ***Turning on AO-DIIS***
    3    -297.1861103708092742    -9.52e-02  8.09e-03  7.51e-02  6.81e-02  0.850   0.3
    4    -297.2382134487129406    -5.21e-02  5.22e-03  6.53e-02  5.03e-02  0.850   0.3
    5    -297.2731440266954905    -3.49e-02  3.87e-03  5.44e-02  3.91e-02  0.850   0.3
    6    -297.2994904599586334    -2.63e-02  3.10e-03  4.37e-02  3.14e-02  0.850   0.3
    7    -297.3206819367715070    -2.12e-02  2.56e-03  3.52e-02  2.60e-02  0.850   0.4
    8    -297.3382705396281835    -1.76e-02  1.43e-02  1.89e-01  2.19e-02  0.000   0.3
    9    -297.4326823563410471    -9.44e-02  1.53e-03  1.13e-02  3.85e-03  0.000   0.3
   10    -297.4327424914450830    -6.01e-05  6.61e-04  4.36e-03  4.68e-03  0.000   0.3
   11    -297.4329631709351816    -2.21e-04  3.17e-04  2.00e-03  1.96e-03  0.000   0.3
                              *** Initializing SOSCF ***
---------------------------------------S-O-S-C-F--------------------------------------
Iteration    Energy (Eh)           Delta-E    RMSDP     MaxDP     MaxGrad    Time(sec)
--------------------------------------------------------------------------------------
   12    -297.4330171962286613    -5.40e-05  1.91e-04  8.88e-04  8.36e-04     0.3
               *** Restarting incremental Fock matrix formation ***
   13    -297.4330326091006782    -1.54e-05  2.61e-04  1.18e-03  2.75e-04     0.3
   14    -297.4330343179633473    -1.71e-06  2.18e-04  1.08e-03  3.04e-04     0.3
   15    -297.4330438304649533    -9.51e-06  1.89e-04  1.14e-03  1.41e-04     0.3
   16    -297.4330432343627990     5.96e-07  1.05e-04  4.72e-04  2.62e-04     0.3
   17    -297.4330459295871378    -2.70e-06  6.55e-05  3.46e-04  5.09e-05     0.3
   18    -297.4330460464341286    -1.17e-07  3.94e-05  1.70e-04  5.17e-05     0.3
   19    -297.4330462343662020    -1.88e-07  3.81e-05  3.32e-04  3.46e-05     0.3
   20    -297.4330462220822255     1.23e-08  1.98e-05  1.64e-04  3.58e-05     0.3
   21    -297.4330462939485642    -7.19e-08  1.56e-05  1.45e-04  1.41e-05     0.3
   22    -297.4330462842614224     9.69e-09  9.44e-06  7.28e-05  2.14e-05     0.3
                 **** Energy Check signals convergence ****

               *****************************************************
               *                     SUCCESS                       *
               *           SCF CONVERGED AFTER  22 CYCLES          *
               *****************************************************

             **** ENERGY FILE WAS UPDATED (hex_antiprism_nn1.70_perturb0.en.tmp) ****

----------------
TOTAL SCF ENERGY
----------------

Total Energy       :       -297.43304630325304 Eh           -8093.56466 eV

Components:
Nuclear Repulsion  :        348.35875320578259 Eh            9479.32359 eV
Electronic Energy  :       -645.79179950903563 Eh          -17572.88825 eV
One Electron Energy:      -1085.25269481489750 Eh          -29531.22716 eV
Two Electron Energy:        439.46089530586187 Eh           11958.33891 eV

Virial components:
Potential Energy   :       -589.61486600888452 Eh          -16044.23618 eV
Kinetic Energy     :        292.18181970563143 Eh            7950.67152 eV
Virial Ratio       :          2.01797246181474

DFT components:
N(Alpha)           :       29.999947813121 electrons
N(Beta)            :       29.999947813121 electrons
N(Total)           :       59.999895626242 electrons
E(X)               :      -46.175676810967 Eh       
E(C)               :       -2.029502069828 Eh       
E(XC)              :      -48.205178880795 Eh       

---------------
SCF CONVERGENCE
---------------

  Last Energy change         ...   -9.6871e-09  Tolerance :   1.0000e-08
  Last MAX-Density change    ...    7.2819e-05  Tolerance :   1.0000e-07
  Last RMS-Density change    ...    9.4414e-06  Tolerance :   5.0000e-09
  Last DIIS Error            ...    8.3587e-04  Tolerance :   5.0000e-07
  Last Orbital Gradient      ...    2.1393e-05  Tolerance :   1.0000e-05
  Last Orbital Rotation      ...    3.1799e-05  Tolerance :   1.0000e-05


----------------
ORBITAL ENERGIES
----------------

  NO   OCC          E(Eh)            E(eV) 
   0   2.0000      -6.607135      -179.7893 
   1   2.0000      -6.606396      -179.7692 
   2   2.0000      -6.599607      -179.5844 
   3   2.0000      -6.597804      -179.5354 
   4   2.0000      -6.597033      -179.5144 
   5   2.0000      -6.596663      -179.5043 
   6   2.0000      -6.591924      -179.3754 
   7   2.0000      -6.577632      -178.9865 
   8   2.0000      -6.574123      -178.8910 
   9   2.0000      -6.572352      -178.8428 
  10   2.0000      -6.565057      -178.6443 
  11   2.0000      -6.553185      -178.3212 
  12   2.0000      -0.674445       -18.3526 
  13   2.0000      -0.634527       -17.2664 
  14   2.0000      -0.585089       -15.9211 
  15   2.0000      -0.505469       -13.7545 
  16   2.0000      -0.493579       -13.4310 
  17   2.0000      -0.407339       -11.0843 
  18   2.0000      -0.388213       -10.5638 
  19   2.0000      -0.372267       -10.1299 
  20   2.0000      -0.349032        -9.4976 
  21   2.0000      -0.327602        -8.9145 
  22   2.0000      -0.322981        -8.7888 
  23   2.0000      -0.292298        -7.9538 
  24   2.0000      -0.276214        -7.5162 
  25   2.0000      -0.269535        -7.3344 
  26   2.0000      -0.259754        -7.0683 
  27   2.0000      -0.234813        -6.3896 
  28   2.0000      -0.210575        -5.7300 
  29   2.0000      -0.175650        -4.7797 
  30   0.0000      -0.158240        -4.3059 
  31   0.0000      -0.154985        -4.2174 
  32   0.0000      -0.146812        -3.9950 
  33   0.0000      -0.134262        -3.6535 
  34   0.0000      -0.127305        -3.4642 
  35   0.0000      -0.115728        -3.1491 
  36   0.0000      -0.106703        -2.9035 
  37   0.0000      -0.075179        -2.0457 
  38   0.0000      -0.059565        -1.6209 
  39   0.0000      -0.046964        -1.2780 
  40   0.0000      -0.039197        -1.0666 
*Only the first 10 virtual orbitals were printed.

                    ********************************
                    * MULLIKEN POPULATION ANALYSIS *
                    ********************************

-----------------------
MULLIKEN ATOMIC CHARGES
-----------------------
   0 B :    0.014088
   1 B :    0.121728
   2 B :   -0.157469
   3 B :   -0.023145
   4 B :   -0.031646
   5 B :   -0.070232
   6 B :    0.037052
   7 B :    0.065913
   8 B :   -0.005776
   9 B :    0.075117
  10 B :    0.054215
  11 B :   -0.079843
Sum of atomic charges:   -0.0000000

--------------------------------
MULLIKEN REDUCED ORBITAL CHARGES
--------------------------------
  0 B s       :     2.929649  s :     2.929649
      pz      :     0.691814  p :     2.012551
      px      :     0.574233
      py      :     0.746504
      dz2     :     0.012670  d :     0.043713
      dxz     :     0.007436
      dyz     :     0.010252
      dx2y2   :     0.006417
      dxy     :     0.006938

  1 B s       :     2.729226  s :     2.729226
      pz      :     0.754053  p :     2.093481
      px      :     0.741094
      py      :     0.598335
      dz2     :     0.015560  d :     0.055564
      dxz     :     0.012250
      dyz     :     0.011615
      dx2y2   :     0.008381
      dxy     :     0.007758

  2 B s       :     2.975359  s :     2.975359
      pz      :     0.763695  p :     2.134511
      px      :     0.775700
      py      :     0.595115
      dz2     :     0.013989  d :     0.047600
      dxz     :     0.010890
      dyz     :     0.007204
      dx2y2   :     0.006883
      dxy     :     0.008634

  3 B s       :     3.121398  s :     3.121398
      pz      :     0.778076  p :     1.859603
      px      :     0.390477
      py      :     0.691049
      dz2     :     0.012710  d :     0.042145
      dxz     :     0.006897
      dyz     :     0.009719
      dx2y2   :     0.005890
      dxy     :     0.006928

  4 B s       :     2.820702  s :     2.820702
      pz      :     0.775992  p :     2.151980
      px      :     0.691566
      py      :     0.684421
      dz2     :     0.017370  d :     0.058964
      dxz     :     0.011095
      dyz     :     0.012413
      dx2y2   :     0.009355
      dxy     :     0.008731

  5 B s       :     3.037049  s :     3.037049
      pz      :     0.742742  p :     1.992182
      px      :     0.651030
      py      :     0.598410
      dz2     :     0.013349  d :     0.041001
      dxz     :     0.007059
      dyz     :     0.007561
      dx2y2   :     0.007024
      dxy     :     0.006009

  6 B s       :     3.044711  s :     3.044711
      pz      :     0.722432  p :     1.869427
      px      :     0.505133
      py      :     0.641861
      dz2     :     0.013205  d :     0.048810
      dxz     :     0.010178
      dyz     :     0.008232
      dx2y2   :     0.009743
      dxy     :     0.007452

  7 B s       :     2.563386  s :     2.563386
      pz      :     0.747181  p :     2.308494
      px      :     0.797011
      py      :     0.764302
      dz2     :     0.017713  d :     0.062207
      dxz     :     0.015520
      dyz     :     0.010824
      dx2y2   :     0.009291
      dxy     :     0.008859

  8 B s       :     3.049439  s :     3.049439
      pz      :     0.743878  p :     1.916141
      px      :     0.558036
      py      :     0.614227
      dz2     :     0.011922  d :     0.040196
      dxz     :     0.006923
      dyz     :     0.007886
      dx2y2   :     0.007051
      dxy     :     0.006414

  9 B s       :     2.696152  s :     2.696152
      pz      :     0.689568  p :     2.172720
      px      :     0.744919
      py      :     0.738232
      dz2     :     0.017421  d :     0.056011
      dxz     :     0.011697
      dyz     :     0.011387
      dx2y2   :     0.008160
      dxy     :     0.007347

 10 B s       :     2.929664  s :     2.929664
      pz      :     0.748225  p :     1.971951
      px      :     0.744587
      py      :     0.479139
      dz2     :     0.014324  d :     0.044170
      dxz     :     0.007952
      dyz     :     0.007370
      dx2y2   :     0.007573
      dxy     :     0.006953

 11 B s       :     2.947734  s :     2.947734
      pz      :     0.728940  p :     2.092300
      px      :     0.658490
      py      :     0.704870
      dz2     :     0.012484  d :     0.039810
      dxz     :     0.007336
      dyz     :     0.007682
      dx2y2   :     0.005616
      dxy     :     0.006691



                     *******************************
                     * LOEWDIN POPULATION ANALYSIS *
                     *******************************

----------------------
LOEWDIN ATOMIC CHARGES
----------------------
   0 B :    0.012482
   1 B :   -0.010365
   2 B :   -0.008238
   3 B :    0.073772
   4 B :   -0.050123
   5 B :    0.006992
   6 B :    0.046193
   7 B :   -0.094780
   8 B :    0.069950
   9 B :   -0.075287
  10 B :    0.020064
  11 B :    0.009341

-------------------------------
LOEWDIN REDUCED ORBITAL CHARGES
-------------------------------
  0 B s       :     2.728993  s :     2.728993
      pz      :     0.791615  p :     2.149472
      px      :     0.563354
      py      :     0.794503
      dz2     :     0.032008  d :     0.109053
      dxz     :     0.012150
      dyz     :     0.029131
      dx2y2   :     0.014721
      dxy     :     0.021043

  1 B s       :     2.684621  s :     2.684621
      pz      :     0.813260  p :     2.179245
      px      :     0.781741
      py      :     0.584244
      dz2     :     0.044327  d :     0.146500
      dxz     :     0.032946
      dyz     :     0.022551
      dx2y2   :     0.024197
      dxy     :     0.022479

  2 B s       :     2.699549  s :     2.699549
      pz      :     0.864848  p :     2.192973
      px      :     0.757328
      py      :     0.570797
      dz2     :     0.035619  d :     0.115716
      dxz     :     0.027538
      dyz     :     0.014387
      dx2y2   :     0.018679
      dxy     :     0.019492

  3 B s       :     2.779198  s :     2.779198
      pz      :     0.871305  p :     2.045067
      px      :     0.433041
      py      :     0.740720
      dz2     :     0.028994  d :     0.101964
      dxz     :     0.013053
      dyz     :     0.027277
      dx2y2   :     0.013673
      dxy     :     0.018967

  4 B s       :     2.663744  s :     2.663744
      pz      :     0.892633  p :     2.237386
      px      :     0.707980
      py      :     0.636772
      dz2     :     0.044638  d :     0.148993
      dxz     :     0.029832
      dyz     :     0.027382
      dx2y2   :     0.025693
      dxy     :     0.021448

  5 B s       :     2.756797  s :     2.756797
      pz      :     0.879065  p :     2.137892
      px      :     0.677590
      py      :     0.581238
      dz2     :     0.031637  d :     0.098318
      dxz     :     0.018510
      dyz     :     0.014702
      dx2y2   :     0.017705
      dxy     :     0.015764

  6 B s       :     2.733432  s :     2.733432
      pz      :     0.791067  p :     2.096102
      px      :     0.598519
      py      :     0.706516
      dz2     :     0.034216  d :     0.124273
      dxz     :     0.024947
      dyz     :     0.020323
      dx2y2   :     0.027542
      dxy     :     0.017245

  7 B s       :     2.637054  s :     2.637054
      pz      :     0.838463  p :     2.292754
      px      :     0.863392
      py      :     0.590899
      dz2     :     0.048554  d :     0.164972
      dxz     :     0.043957
      dyz     :     0.018097
      dx2y2   :     0.028965
      dxy     :     0.025399

  8 B s       :     2.777853  s :     2.777853
      pz      :     0.828870  p :     2.057562
      px      :     0.574953
      py      :     0.653739
      dz2     :     0.026760  d :     0.094635
      dxz     :     0.014809
      dyz     :     0.018448
      dx2y2   :     0.018588
      dxy     :     0.016029

  9 B s       :     2.657913  s :     2.657913
      pz      :     0.831810  p :     2.273724
      px      :     0.672801
      py      :     0.769113
      dz2     :     0.046310  d :     0.143650
      dxz     :     0.024255
      dyz     :     0.030933
      dx2y2   :     0.022819
      dxy     :     0.019333

 10 B s       :     2.723583  s :     2.723583
      pz      :     0.875965  p :     2.147799
      px      :     0.772376
      py      :     0.499459
      dz2     :     0.033316  d :     0.108554
      dxz     :     0.023402
      dyz     :     0.012599
      dx2y2   :     0.019072
      dxy     :     0.020165

 11 B s       :     2.727195  s :     2.727195
      pz      :     0.845921  p :     2.168781
      px      :     0.619869
      py      :     0.702990
      dz2     :     0.031156  d :     0.094683
      dxz     :     0.014945
      dyz     :     0.018973
      dx2y2   :     0.014796
      dxy     :     0.014813



                      *****************************
                      * MAYER POPULATION ANALYSIS *
                      *****************************

  NA   - Mulliken gross atomic population
  ZA   - Total nuclear charge
  QA   - Mulliken gross atomic charge
  VA   - Mayer's total valence
  BVA  - Mayer's bonded valence
  FA   - Mayer's free valence

  ATOM       NA         ZA         QA         VA         BVA        FA
  0 B      4.9859     5.0000     0.0141     3.8454     3.8454     0.0000
  1 B      4.8783     5.0000     0.1217     3.9583     3.9583    -0.0000
  2 B      5.1575     5.0000    -0.1575     3.9752     3.9752    -0.0000
  3 B      5.0231     5.0000    -0.0231     3.7195     3.7195    -0.0000
  4 B      5.0316     5.0000    -0.0316     3.8574     3.8574    -0.0000
  5 B      5.0702     5.0000    -0.0702     3.7855     3.7855     0.0000
  6 B      4.9629     5.0000     0.0371     3.6412     3.6412    -0.0000
  7 B      4.9341     5.0000     0.0659     4.0103     4.0103    -0.0000
  8 B      5.0058     5.0000    -0.0058     3.7801     3.7801    -0.0000
  9 B      4.9249     5.0000     0.0751     3.7551     3.7551    -0.0000
 10 B      4.9458     5.0000     0.0542     3.8161     3.8161    -0.0000
 11 B      5.0798     5.0000    -0.0798     3.8547     3.8547     0.0000

  Mayer bond orders larger than 0.100000
B(  0-B ,  1-B ) :   0.9333 B(  0-B ,  2-B ) :   0.1344 B(  0-B ,  5-B ) :   1.0027 
B(  0-B ,  6-B ) :   0.5795 B(  0-B , 11-B ) :   0.8228 B(  1-B ,  2-B ) :   1.1689 
B(  1-B ,  5-B ) :   0.1052 B(  1-B ,  6-B ) :   0.7049 B(  1-B ,  7-B ) :   0.6883 
B(  1-B ,  8-B ) :   0.1713 B(  2-B ,  3-B ) :   0.6967 B(  2-B ,  6-B ) :   0.1779 
B(  2-B ,  7-B ) :   0.7859 B(  2-B ,  8-B ) :   0.7323 B(  3-B ,  4-B ) :   1.2397 
B(  3-B ,  8-B ) :   0.7160 B(  3-B ,  9-B ) :   0.5916 B(  3-B , 10-B ) :   0.2303 
B(  4-B ,  5-B ) :   0.7055 B(  4-B ,  8-B ) :   0.1154 B(  4-B ,  9-B ) :   0.8704 
B(  4-B , 10-B ) :   0.6697 B(  5-B , 10-B ) :   0.7810 B(  5-B , 11-B ) :   0.7357 
B(  6-B ,  7-B ) :   1.0420 B(  6-B , 11-B ) :   0.8791 B(  7-B ,  8-B ) :   0.8853 
B(  7-B , 11-B ) :   0.2055 B(  8-B ,  9-B ) :   0.8380 B(  9-B , 10-B ) :   1.0011 
B( 10-B , 11-B ) :   0.8416 

-------
TIMINGS
-------

Total SCF time: 0 days 0 hours 0 min 7 sec 

Total time                  ....       7.909 sec
Sum of individual times     ....       7.502 sec  ( 94.9%)

SCF preparation             ....       0.507 sec  (  6.4%)
Fock matrix formation       ....       6.282 sec  ( 79.4%)
  Startup                   ....       0.012 sec  (  0.2% of F)
  Split-RI-J                ....       2.045 sec  ( 32.5% of F)
  XC integration            ....       4.259 sec  ( 67.8% of F)
    XC Preparation          ....       0.000 sec  (  0.0% of XC)
    Basis function eval.    ....       0.991 sec  ( 23.3% of XC)
    Density eval.           ....       0.729 sec  ( 17.1% of XC)
    XC-Functional eval.     ....       0.121 sec  (  2.8% of XC)
    XC-Potential eval.      ....       0.929 sec  ( 21.8% of XC)
Diagonalization             ....       0.000 sec  (  0.0%)
Density matrix formation    ....       0.096 sec  (  1.2%)
Total Energy calculation    ....       0.046 sec  (  0.6%)
Population analysis         ....       0.044 sec  (  0.6%)
Orbital Transformation      ....       0.033 sec  (  0.4%)
Orbital Orthonormalization  ....       0.000 sec  (  0.0%)
DIIS solution               ....       0.281 sec  (  3.5%)
SOSCF solution              ....       0.212 sec  (  2.7%)
Finished LeanSCF after   7.9 sec

Maximum memory used throughout the entire LEANSCF-calculation: 10.2 MB


-------------------------------------------------------------------------------
                          DFT DISPERSION CORRECTION                            
                                                                               
                              DFTD3 V3.1  Rev 1                                
                          USING Becke-Johnson damping                          
-------------------------------------------------------------------------------
The BP86 functional is recognized
Active option DFTDOPT                   ...         4   

molecular C6(AA) [au] = 4429.860275 


            DFT-D V3
 parameters
 s6 scaling factor         :     1.0000 
 a1 scaling factor         :     0.3946 
 s8 scaling factor         :     3.2822 
 a2 scaling factor         :     4.8516 
 ad hoc parameters k1-k3   :    16.0000     1.3333    -4.0000 

 Edisp/kcal,au: -22.853997322577  -0.036420159104 
 E6   /kcal   :  -6.505602876 
 E8   /kcal   : -16.348394447 
 % E8         :  71.534070018 

-------------------------   ----------------
Dispersion correction           -0.036420159
-------------------------   ----------------


-------------------------   --------------------
FINAL SINGLE POINT ENERGY      -297.469466462357
-------------------------   --------------------



           ************************************************************
           *        Program running with 8 parallel MPI-processes     *
           *              working on a common directory               *
           ************************************************************
------------------------------------------------------------------------------
                         ORCA SCF GRADIENT CALCULATION
------------------------------------------------------------------------------

Nuc. rep. gradient        (SHARK) ... done (  0.0 sec)
HCore & Overlap gradient  (SHARK) ... done (  0.0 sec)
Split-RIJ-J gradient      (SHARK) ... done (  0.4 sec)
XC gradient                       ... done (  1.0 sec)
Dispersion correction             ... done (  0.0 sec)

-------------------
DISPERSION GRADIENT
-------------------

   1   B   :    0.000569165    0.000229505   -0.000125112
   2   B   :    0.000487524    0.000453294    0.000026606
   3   B   :   -0.000319034    0.000612524    0.000155705
   4   B   :   -0.000633595    0.000034165   -0.000132956
   5   B   :   -0.000326806   -0.000649134    0.000132509
   6   B   :    0.000203626   -0.000544385    0.000178479
   7   B   :    0.000608820    0.000007057    0.000270789
   8   B   :   -0.000009595    0.000592765   -0.000131571
   9   B   :   -0.000586295   -0.000513664    0.000042311
  10   B   :   -0.000249523    0.000393602   -0.000105648
  11   B   :   -0.000339778   -0.000528645   -0.000152770
  12   B   :    0.000595491   -0.000087085   -0.000158343

Difference to translation invariance:
           :    0.0000000000    0.0000000000   -0.0000000000

Difference to rotation invariance:
           :   -0.0000000000    0.0000000000   -0.0000000000

Norm of the Dispersion gradient    ...    0.0022647528
RMS gradient                       ...    0.0003774588
MAX gradient                       ...    0.0006491343

------------------
CARTESIAN GRADIENT
------------------

   1   B   :    0.050795095    0.032385619    0.022362101
   2   B   :   -0.005039521    0.021959572   -0.036579113
   3   B   :    0.043333185    0.041615953   -0.032223904
   4   B   :   -0.050249253   -0.022146930    0.019034977
   5   B   :   -0.067994181    0.024206163   -0.133484803
   6   B   :    0.000671561   -0.056975790   -0.001596208
   7   B   :   -0.023175053    0.093804946   -0.003742092
   8   B   :    0.060631706   -0.012991371    0.068449463
   9   B   :   -0.026373284    0.033464738   -0.036789393
  10   B   :   -0.008110035   -0.086153129    0.134647723
  11   B   :   -0.018811495   -0.045911304    0.004723473
  12   B   :    0.044321277   -0.023258467   -0.004802224

Difference to translation invariance:
           :   -0.0000000000    0.0000000000    0.0000000000

Difference to rotation invariance:
           :   -0.0000703141   -0.0003429390    0.0002434671

Norm of the Cartesian gradient     ...    0.3032446691
RMS gradient                       ...    0.0505407782
MAX gradient                       ...    0.1346477226

-------
TIMINGS
-------

Total SCF gradient time     ....        1.427 sec

Densities                   ....       0.001 sec  (  0.0%)
One electron gradient       ....       0.044 sec  (  3.1%)
RI-J Coulomb gradient       ....       0.376 sec  ( 26.3%)
XC gradient                 ....       0.962 sec  ( 67.4%)

Maximum memory used throughout the entire SCFGRAD-calculation: 29.7 MB
------------------------------------------------------------------------------
                         ORCA GEOMETRY RELAXATION STEP
------------------------------------------------------------------------------

Reading the OPT-File                    .... done
Getting information on internals        .... done
Copying old internal coords+grads       .... done
Making the new internal coordinates     .... (2022 redundants) done
Validating the new internal coordinates .... (2022 redundants) done
Calculating the B-matrix                .... done
Calculating the G,G- and P matrices     .... done
Transforming gradient to internals      .... done
Projecting the internal gradient        .... done
Number of atoms                         ....  12
Number of internal coordinates          .... 219
Current Energy                          ....  -297.469466462 Eh
Current gradient norm                   ....     0.303244669 Eh/bohr
Maximum allowed component of the step   ....  0.300
Current trust radius                    ....  0.300
Evaluating the initial hessian          ....  (Almloef) done
Projecting the Hessian                  .... done
Forming the augmented Hessian           .... done
Diagonalizing the augmented Hessian     .... done
Last element of RFO vector              ....  0.835847710
Lowest eigenvalues of augmented Hessian:
 -0.118793934  0.027473667  0.031873319  0.035686471  0.043542597
Length of the computed step             ....  0.656772019
Warning: the length of the step is outside the trust region - taking restricted step instead
The input lambda is                     ....     0.026425
   iter:   5  x=   -0.032987  g=   43.265092 f(x)=     1.814097
   iter:  10  x=   -0.438939  g=    0.355622 f(x)=     0.011394
The output lambda is                    ....    -0.441967 (14 iterations)
The final length of the internal step   ....  0.300000000
Converting the step to Cartesian space:
 Initial RMS(Int)=    0.0202721214
Transforming coordinates:
 Iter   0:  RMS(Cart)=    0.0465262711 RMS(Int)=    0.0202764740
done
Storing new coordinates                 .... done

                                .--------------------.
          ----------------------|Geometry convergence|-------------------------
          Item                value                   Tolerance       Converged
          ---------------------------------------------------------------------
          RMS gradient        0.0126494889            0.0001000000      NO
          MAX gradient        0.0628280022            0.0003000000      NO
          RMS step            0.0202721214            0.0020000000      NO
          MAX step            0.1065732863            0.0040000000      NO
          -------------------------------------------------------------------------
          ........................................................
          Max(Bonds)      0.0564      Max(Angles)    2.82
          Max(Dihed)        1.94      Max(Improp)    0.00
          ---------------------------------------------------------------------

The optimization has not yet converged - more geometry cycles are needed


    ---------------------------------------------------------------------------
                         Redundant Internal Coordinates
                            (Angstroem and degrees)

        Definition                    Value    dE/dq     Step     New-Value
    ----------------------------------------------------------------------------
     1. B(B   1,B   0)                1.7341  0.020386 -0.0169    1.7171   
     2. B(B   2,B   1)                1.6274 -0.006699  0.0028    1.6303   
     3. B(B   4,B   3)                1.6668  0.001514 -0.0048    1.6620   
     4. B(B   5,B   4)                2.0284  0.041560 -0.0379    1.9905   
     5. B(B   5,B   0)                1.9091  0.062828 -0.0564    1.8527   
     6. B(B   6,B   1)                1.7071 -0.012091  0.0090    1.7162   
     7. B(B   6,B   0)                1.8866  0.013220 -0.0129    1.8737   
     8. B(B   7,B   6)                1.5410 -0.020394  0.0133    1.5543   
     9. B(B   7,B   2)                1.5566 -0.016119  0.0123    1.5689   
    10. B(B   7,B   1)                1.6074 -0.024214  0.0162    1.6235   
    11. B(B   8,B   7)                1.7998  0.049415 -0.0417    1.7581   
    12. B(B   8,B   3)                1.9248  0.038556 -0.0381    1.8867   
    13. B(B   8,B   2)                1.7812  0.023426 -0.0223    1.7589   
    14. B(B   9,B   4)                1.4263 -0.054708  0.0348    1.4612   
    15. B(B   9,B   3)                1.6726 -0.009733  0.0045    1.6771   
    16. B(B   9,B   8)                1.8924  0.055090 -0.0498    1.8426   
    17. B(B  10,B   9)                1.7551 -0.000283 -0.0059    1.7493   
    18. B(B  10,B   5)                1.6964  0.003781 -0.0061    1.6903   
    19. B(B  10,B   4)                1.6857 -0.000797 -0.0022    1.6834   
    20. B(B  11,B  10)                2.0197  0.045928 -0.0434    1.9763   
    21. B(B  11,B   6)                1.9098  0.047123 -0.0417    1.8681   
    22. B(B  11,B   5)                1.7493  0.016152 -0.0161    1.7332   
    23. B(B  11,B   0)                1.7023  0.018349 -0.0154    1.6869   
    24. A(B   1,B   0,B   5)          116.28  0.002750   -0.29    115.99   
    25. A(B   5,B   0,B   6)          111.07  0.000850   -0.14    110.93   
    26. A(B   1,B   0,B  11)          110.37  0.001152   -0.15    110.22   
    27. A(B   6,B   0,B  11)           64.06  0.010775   -1.02     63.04   
    28. A(B   1,B   0,B   6)           56.07 -0.009098    0.82     56.89   
    29. A(B   5,B   0,B  11)           57.60 -0.009035    0.80     58.41   
    30. A(B   0,B   1,B   7)          111.35 -0.001538    0.07    111.42   
    31. A(B   0,B   1,B   6)           66.49  0.003071   -0.33     66.16   
    32. A(B   6,B   1,B   7)           55.31 -0.001513    0.08     55.39   
    33. A(B   2,B   1,B   7)           57.52 -0.000530    0.13     57.66   
    34. A(B   2,B   1,B   6)          110.53 -0.001318    0.12    110.65   
    35. A(B   0,B   1,B   2)          128.92 -0.003634    0.29    129.21   
    36. A(B   1,B   2,B   8)          114.44  0.008055   -0.73    113.71   
    37. A(B   7,B   2,B   8)           64.85  0.015939   -1.37     63.48   
    38. A(B   1,B   2,B   7)           60.59 -0.005019    0.37     60.96   
    39. A(B   8,B   3,B   9)           63.02  0.012372   -1.06     61.95   
    40. A(B   4,B   3,B   9)           50.57 -0.017932    1.33     51.90   
[...]
      pz      :     0.750941  p :     2.218901
      px      :     0.678451
      py      :     0.789508
      dz2     :     0.014573  d :     0.056171
      dxz     :     0.010710
      dyz     :     0.011720
      dx2y2   :     0.010452
      dxy     :     0.008716

  9 B s       :     2.723232  s :     2.723232
      pz      :     0.748511  p :     2.217932
      px      :     0.659341
      py      :     0.810080
      dz2     :     0.014606  d :     0.056143
      dxz     :     0.010645
      dyz     :     0.011880
      dx2y2   :     0.010001
      dxy     :     0.009011

 10 B s       :     2.726789  s :     2.726789
      pz      :     0.753527  p :     2.219530
      px      :     0.868788
      py      :     0.597215
      dz2     :     0.014557  d :     0.056207
      dxz     :     0.012244
      dyz     :     0.010061
      dx2y2   :     0.008310
      dxy     :     0.011036

 11 B s       :     2.722938  s :     2.722938
      pz      :     0.760268  p :     2.217303
      px      :     0.665832
      py      :     0.791203
      dz2     :     0.014478  d :     0.056135
      dxz     :     0.010537
      dyz     :     0.011338
      dx2y2   :     0.010763
      dxy     :     0.009020



                     *******************************
                     * LOEWDIN POPULATION ANALYSIS *
                     *******************************

----------------------
LOEWDIN ATOMIC CHARGES
----------------------
   0 B :   -0.000205
   1 B :    0.000201
   2 B :   -0.000040
   3 B :   -0.000135
   4 B :   -0.000225
   5 B :    0.000322
   6 B :    0.000584
   7 B :   -0.000597
   8 B :    0.000645
   9 B :   -0.000217
  10 B :    0.000166
  11 B :   -0.000498

-------------------------------
LOEWDIN REDUCED ORBITAL CHARGES
-------------------------------
  0 B s       :     2.675350  s :     2.675350
      pz      :     0.782196  p :     2.182036
      px      :     0.533079
      py      :     0.866761
      dz2     :     0.040540  d :     0.142820
      dxz     :     0.016736
      dyz     :     0.034392
      dx2y2   :     0.021050
      dxy     :     0.030101

  1 B s       :     2.675449  s :     2.675449
      pz      :     0.784219  p :     2.181463
      px      :     0.773923
      py      :     0.623321
      dz2     :     0.040511  d :     0.142887
      dxz     :     0.029422
      dyz     :     0.021694
      dx2y2   :     0.028476
      dxy     :     0.022784

  2 B s       :     2.675291  s :     2.675291
      pz      :     0.792957  p :     2.181850
      px      :     0.789136
      py      :     0.599756
      dz2     :     0.040450  d :     0.142900
      dxz     :     0.030340
      dyz     :     0.020468
      dx2y2   :     0.027572
      dxy     :     0.024069

  3 B s       :     2.675207  s :     2.675207
      pz      :     0.798938  p :     2.181955
      px      :     0.515695
      py      :     0.867322
      dz2     :     0.040370  d :     0.142973
      dxz     :     0.016654
      dyz     :     0.033857
      dx2y2   :     0.021342
      dxy     :     0.030750

  4 B s       :     2.675174  s :     2.675174
      pz      :     0.797550  p :     2.182107
      px      :     0.764658
      py      :     0.619899
      dz2     :     0.040406  d :     0.142944
      dxz     :     0.029024
      dyz     :     0.021574
      dx2y2   :     0.029028
      dxy     :     0.022912

  5 B s       :     2.675312  s :     2.675312
      pz      :     0.789652  p :     2.181409
      px      :     0.796835
      py      :     0.594922
      dz2     :     0.040506  d :     0.142957
      dxz     :     0.030577
      dyz     :     0.020394
      dx2y2   :     0.027308
      dxy     :     0.024172

  6 B s       :     2.675422  s :     2.675422
      pz      :     0.799324  p :     2.181003
      px      :     0.589614
      py      :     0.792065
      dz2     :     0.040375  d :     0.142992
      dxz     :     0.020345
      dyz     :     0.030168
      dx2y2   :     0.027712
      dxy     :     0.024393

  7 B s       :     2.675277  s :     2.675277
      pz      :     0.793974  p :     2.182584
      px      :     0.866374
      py      :     0.522236
      dz2     :     0.040425  d :     0.142736
      dxz     :     0.034009
      dyz     :     0.016673
      dx2y2   :     0.021163
      dxy     :     0.030466

  8 B s       :     2.675576  s :     2.675576
      pz      :     0.785076  p :     2.180873
      px      :     0.628215
      py      :     0.767582
      dz2     :     0.040502  d :     0.142907
      dxz     :     0.021817
      dyz     :     0.029286
      dx2y2   :     0.028624
      dxy     :     0.022677

  9 B s       :     2.675217  s :     2.675217
      pz      :     0.781918  p :     2.182116
      px      :     0.605914
      py      :     0.794283
      dz2     :     0.040566  d :     0.142884
      dxz     :     0.020583
      dyz     :     0.030590
      dx2y2   :     0.027226
      dxy     :     0.023919

 10 B s       :     2.675244  s :     2.675244
      pz      :     0.788545  p :     2.181577
      px      :     0.867256
      py      :     0.525776
      dz2     :     0.040510  d :     0.143014
      dxz     :     0.034355
      dyz     :     0.016667
      dx2y2   :     0.021141
      dxy     :     0.030340

 11 B s       :     2.675154  s :     2.675154
      pz      :     0.796745  p :     2.182465
      px      :     0.614908
      py      :     0.770812
      dz2     :     0.040404  d :     0.142879
      dxz     :     0.021614
      dyz     :     0.028994
      dx2y2   :     0.028882
      dxy     :     0.022985



                      *****************************
                      * MAYER POPULATION ANALYSIS *
                      *****************************

  NA   - Mulliken gross atomic population
  ZA   - Total nuclear charge
  QA   - Mulliken gross atomic charge
  VA   - Mayer's total valence
  BVA  - Mayer's bonded valence
  FA   - Mayer's free valence

  ATOM       NA         ZA         QA         VA         BVA        FA
  0 B      4.9991     5.0000     0.0009     4.2247     4.2247     0.0000
  1 B      5.0019     5.0000    -0.0019     4.2287     4.2287     0.0000
  2 B      4.9986     5.0000     0.0014     4.2258     4.2258     0.0000
  3 B      5.0002     5.0000    -0.0002     4.2281     4.2281     0.0000
  4 B      4.9990     5.0000     0.0010     4.2261     4.2261     0.0000
  5 B      5.0010     5.0000    -0.0010     4.2289     4.2289     0.0000
  6 B      5.0034     5.0000    -0.0034     4.2316     4.2316    -0.0000
  7 B      4.9963     5.0000     0.0037     4.2216     4.2216    -0.0000
  8 B      5.0043     5.0000    -0.0043     4.2314     4.2314    -0.0000
  9 B      4.9973     5.0000     0.0027     4.2236     4.2236    -0.0000
 10 B      5.0025     5.0000    -0.0025     4.2309     4.2309    -0.0000
 11 B      4.9964     5.0000     0.0036     4.2226     4.2226    -0.0000

  Mayer bond orders larger than 0.100000
B(  0-B ,  1-B ) :   1.0031 B(  0-B ,  2-B ) :   0.1769 B(  0-B ,  4-B ) :   0.1768 
B(  0-B ,  5-B ) :   1.0032 B(  0-B ,  6-B ) :   0.7536 B(  0-B ,  7-B ) :   0.1193 
B(  0-B , 10-B ) :   0.1193 B(  0-B , 11-B ) :   0.7546 B(  1-B ,  2-B ) :   1.0031 
B(  1-B ,  3-B ) :   0.1787 B(  1-B ,  5-B ) :   0.1789 B(  1-B ,  6-B ) :   0.7531 
B(  1-B ,  7-B ) :   0.7544 B(  1-B ,  8-B ) :   0.1195 B(  1-B , 11-B ) :   0.1194 
B(  2-B ,  3-B ) :   1.0022 B(  2-B ,  4-B ) :   0.1778 B(  2-B ,  6-B ) :   0.1191 
B(  2-B ,  7-B ) :   0.7545 B(  2-B ,  8-B ) :   0.7540 B(  2-B ,  9-B ) :   0.1191 
B(  3-B ,  4-B ) :   1.0036 B(  3-B ,  5-B ) :   0.1790 B(  3-B ,  7-B ) :   0.1191 
B(  3-B ,  8-B ) :   0.7534 B(  3-B ,  9-B ) :   0.7538 B(  3-B , 10-B ) :   0.1195 
B(  4-B ,  5-B ) :   1.0022 B(  4-B ,  8-B ) :   0.1196 B(  4-B ,  9-B ) :   0.7548 
B(  4-B , 10-B ) :   0.7535 B(  4-B , 11-B ) :   0.1193 B(  5-B ,  6-B ) :   0.1193 
B(  5-B ,  9-B ) :   0.1194 B(  5-B , 10-B ) :   0.7534 B(  5-B , 11-B ) :   0.7544 
B(  6-B ,  7-B ) :   1.0025 B(  6-B ,  8-B ) :   0.1806 B(  6-B , 10-B ) :   0.1808 
B(  6-B , 11-B ) :   1.0030 B(  7-B ,  8-B ) :   1.0032 B(  7-B ,  9-B ) :   0.1753 
B(  7-B , 11-B ) :   0.1752 B(  8-B ,  9-B ) :   1.0030 B(  8-B , 10-B ) :   0.1799 
B(  9-B , 10-B ) :   1.0032 B(  9-B , 11-B ) :   0.1761 B( 10-B , 11-B ) :   1.0026 


-------
TIMINGS
-------

Total SCF time: 0 days 0 hours 0 min 3 sec 

Total time                  ....       3.821 sec
Sum of individual times     ....       3.304 sec  ( 86.5%)

SCF preparation             ....       0.502 sec  ( 13.1%)
Fock matrix formation       ....       2.427 sec  ( 63.5%)
  Startup                   ....       0.010 sec  (  0.4% of F)
  Split-RI-J                ....       0.837 sec  ( 34.5% of F)
  XC integration            ....       1.682 sec  ( 69.3% of F)
    XC Preparation          ....       0.000 sec  (  0.0% of XC)
    Basis function eval.    ....       0.440 sec  ( 26.2% of XC)
    Density eval.           ....       0.317 sec  ( 18.8% of XC)
    XC-Functional eval.     ....       0.049 sec  (  2.9% of XC)
    XC-Potential eval.      ....       0.366 sec  ( 21.8% of XC)
Diagonalization             ....       0.000 sec  (  0.0%)
Density matrix formation    ....       0.041 sec  (  1.1%)
Total Energy calculation    ....       0.020 sec  (  0.5%)
Population analysis         ....       0.090 sec  (  2.4%)
Orbital Transformation      ....       0.016 sec  (  0.4%)
Orbital Orthonormalization  ....       0.000 sec  (  0.0%)
DIIS solution               ....       0.029 sec  (  0.8%)
SOSCF solution              ....       0.179 sec  (  4.7%)
Finished LeanSCF after   3.9 sec

Maximum memory used throughout the entire LEANSCF-calculation: 10.9 MB


-------------------------------------------------------------------------------
                          DFT DISPERSION CORRECTION                            
                                                                               
                              DFTD3 V3.1  Rev 1                                
                          USING Becke-Johnson damping                          
-------------------------------------------------------------------------------
The BP86 functional is recognized
Active option DFTDOPT                   ...         4   

molecular C6(AA) [au] = 4067.259885 


            DFT-D V3
 parameters
 s6 scaling factor         :     1.0000 
 a1 scaling factor         :     0.3946 
 s8 scaling factor         :     3.2822 
 a2 scaling factor         :     4.8516 
 ad hoc parameters k1-k3   :    16.0000     1.3333    -4.0000 

 Edisp/kcal,au: -22.784986034920  -0.036310182629 
 E6   /kcal   :  -6.462140126 
 E8   /kcal   : -16.322845909 
 % E8         :  71.638603966 

-------------------------   ----------------
Dispersion correction           -0.036310183
-------------------------   ----------------


-------------------------   --------------------
FINAL SINGLE POINT ENERGY      -297.694602724888
-------------------------   --------------------

                                *** OPTIMIZATION RUN DONE ***



           ************************************************************
           *        Program running with 8 parallel MPI-processes     *
           *              working on a common directory               *
           ************************************************************

------------------------------------------------------------------------------
                              ORCA PROPERTY CALCULATIONS
------------------------------------------------------------------------------

GBWName                                 ... hex_antiprism_nn1.70_perturb0.gbw
Number of atoms                         ...     12
Number of basis functions               ...    168
Max core memory                         ...   2500 MB

Electric properties:
Dipole moment                           ... YES
Quadrupole moment                       ...  NO
Static polarizability (Dipole/Dipole)   ...  NO
Static polarizability (Dipole/Quad.)    ...  NO
Static polarizability (Quad./Quad.)     ...  NO
Static polarizability (Velocity)        ...  NO
Static hyperpolarizability              ...  NO

Atomic electric properties:
Dipole moment                           ...  NO
Quadrupole moment                       ...  NO
Static polarizability                   ...  NO

Choice of electric origin               ... Center of mass
Position of electric origin             ...    -0.035362    -0.025699    -0.031341

General magnetic properties:
Magnetizability                         ...  NO

EPR properties:
g-Tensor (aka g-matrix)                 ...  NO
Zero-Field splitting spin-orbit         ...  NO
Zero-field splitting spin-spin          ...  NO
Hyperfine couplings                     ...  NO (   0 nuclei)
Quadrupole couplings                    ...  NO (   0 nuclei)
Contact density                         ...  NO (   0 nuclei)

NMR properties:
Chemical shifts                         ...  NO (   0 nuclei)
Spin-rotation constants                 ...  NO (   0 nuclei)
Spin-spin couplings                     ...  NO (   0 nuclei,    0 pairs)

Choice of magnetic origin               ... GIAO
Position of magnetic origin             ...     0.000000     0.000000     0.000000

Properties with geometric perturbations:
SCF Hessian                             ...  NO
IR spectrum                             ...  NO
VCD spectrum                            ...  NO
X-ray spectroscopy properties:
SCF XES/XAS/RIXS spectra                ...  NO

SCF SOC stabilization energy            ...  NO
Diagonal Born-Oppenheimer correction    ...  NO

-------------
DIPOLE MOMENT
-------------

Method             : SCF
Type of density    : Electron Density
Multiplicity       :   1
Irrep              :   0
Energy             :  -297.6582925422594030 Eh
Basis              : AO
                                X                 Y                 Z
Electronic contribution:     -0.000161046       0.000174412       0.000028054
Nuclear contribution   :      0.000000000       0.000000000       0.000000000
                        -----------------------------------------
Total Dipole Moment    :     -0.000161046       0.000174412       0.000028054
                        -----------------------------------------
Magnitude (a.u.)       :      0.000239044
Magnitude (Debye)      :      0.000607602



--------------------
Rotational spectrum 
--------------------
 
Rotational constants in cm-1:             0.068525             0.068499             0.048301 
Rotational constants in MHz :          2054.341992          2053.539458          1448.038320 

Dipole components along the rotational axes: 
x,y,z [a.u.] :    -0.000232    -0.000046     0.000033 
x,y,z [Debye]:    -0.000590    -0.000118     0.000083 

 

Dipole moment calculation done in   0.0 sec 

Maximum memory used throughout the entire PROP-calculation: 8.6 MB

--------------------------------
SUGGESTED CITATIONS FOR THIS RUN
--------------------------------

Below you find a list of papers that are relevant to this ORCA run
We neither can nor want to force you to cite these papers, but we appreciate if you do
You receive ORCA, which is the product of decades of hard work by many enthusiastic individuals, for free
The only thing we kindly ask in return is that you cite our papers,
We deeply appreciate it, if you show your appreciation for ORCA by not just citing the generic ORCA reference.

Please note that relegating all ORCA citations to the supporting information does *not* help us.
SI sections are not indexed - citations you put there will not count into any citation statistics
But we need these citations in order to attract the funding resources that allow us to do what we are doing

Therefore, if you are a happy ORCA user, please consider citing a few of the papers listed below in the main body of your paper

In addition to the list printed below, the program has created the file hex_antiprism_nn1.70_perturb0.bibtex that contains the list in bibtex format
You can import this file easily into all common literature databanks and citation aid programs

It goes without saying that in many instances, there are alternative algorithms to achieve similar
results as the ones you have gotten from ORCA. It is, of course, also the case that in some instances
ORCA just re-implements algorithms worked out by others. We are fully aware of that and we are also
fully appreciative of our colleagues work. Hence this citation list should not be read as indicating
that the listed papers, which are focused on our own work, are the only ones worth citing. It simply
meant to make it easier for users to cite ORCA specific papers. It is not a substitute for doing your
own literature research and citing the relevant literature in a scientifically appropriate manner.

List of essential papers. We consider these as the minimum necessary citations

  1. Neese, F.
     Software update: the ORCA program system, version 6.0
     WIRES Comput. Molec. Sci. 2025 15(1), e70019
     doi.org/10.1002/wcms.70019

List of papers to cite with high priority. The work reported in these papers was absolutely
necessary for this run to complete.
Our perspective: the developers of density functionals and basis sets usually get cited in chemistry papers
Good! But without the algorithms to do something with them, the functionals or basis sets would not do anything.
Hence, in our opinion, the algorithm design and method developments papers are equally worthy of getting cited

  1. Neese, F.
     An improvement of the resolution of the identity approximation for the formation of the Coulomb matrix
     J. Comp. Chem. 2003 24(14), 1740-1747
     doi.org/10.1002/jcc.10318
  2. Grimme, S.; Antony, J.; Ehrlich, S.; Krieg, H.
     A consistent and accurate ab initio parametrization of density functional dispersion correction (DFT-D) for the 94 elements H-Pu
     J. Chem. Phys. 2010 132 , 154104
     doi.org/10.1063/1.3382344
  3. Grimme, S.; Ehrlich, S.; Goerigk, L.
     Effect of the damping function in dispersion corrected density functional theory
     J. Comput. Chem. 2011 32(7), 1456-1465
     doi.org/10.1002/jcc.21759
  4. Neese, F.
     The SHARK Integral Generation and Digestion System
     J. Comp. Chem. 2022 44(3), 381
     doi.org/10.1002/jcc.26942

List of suggested additional citations. These are papers that are important in the 'surrounding' of 
of this run, or papers that preceded the highly important papers. If you like your results we are grateful for a citation.

  1. Neese, F.
     The ORCA program system
     WIRES Comput. Molec. Sci. 2012 2(1), 73-78
     doi.org/10.1002/wcms.81
  2. Neese, F.
     Software update: the ORCA program system, version 4.0
     WIRES Comput. Molec. Sci. 2018 8(1), 1-6
     doi.org/10.1002/wcms.1327
  3. Neese, F.; Wennmohs, F.; Becker, U.; Riplinger, C.
     The ORCA quantum chemistry program package
     J. Chem. Phys. 2020 152(22), 224108
     doi.org/10.1063/5.0004608
  4. Neese, F.
     Software update: The ORCA program system—Version 5.0
     WIRES Comput. Molec. Sci. 2022 12(1), e1606
     doi.org/10.1002/wcms.1606

List of optional additional citations

  1. Neese, F.
     Approximate second-order SCF convergence for spin unrestricted wavefunctions
     Chem. Phys. Lett. 2000 325(1-3), 93-98
     doi.org/10.1016/s0009-2614(00)00662-x

Timings for individual modules:

Sum of individual times          ...      192.338 sec (=   3.206 min)
Startup calculation              ...       30.438 sec (=   0.507 min)  15.8 %
SCF iterations                   ...      120.157 sec (=   2.003 min)  62.5 %
Property calculations            ...        0.719 sec (=   0.012 min)   0.4 %
SCF Gradient evaluation          ...       40.717 sec (=   0.679 min)  21.2 %
Geometry relaxation              ...        0.306 sec (=   0.005 min)   0.2 %
                             ****ORCA TERMINATED NORMALLY****
TOTAL RUN TIME: 0 days 0 hours 3 minutes 26 seconds 88 msec
