
                                 *****************
                                 * O   R   C   A *
                                 *****************

                                            #,                                       
                                            ###                                      
                                            ####                                     
                                            #####                                    
                                            ######                                   
                                           ########,                                 
                                     ,,################,,,,,                         
                               ,,#################################,,                 
                          ,,##########################################,,             
                       ,#########################################, ''#####,          
                    ,#############################################,,   '####,        
                  ,##################################################,,,,####,       
                ,###########''''           ''''###############################       
              ,#####''   ,,,,##########,,,,          '''####'''          '####       
            ,##' ,,,,###########################,,,                        '##       
           ' ,,###''''                  '''############,,,                           
         ,,##''                                '''############,,,,        ,,,,,,###''
      ,#''                                            '''#######################'''  
     '                                                          ''''####''''         
             ,#######,   #######,   ,#######,      ##                                
            ,#'     '#,  ##    ##  ,#'     '#,    #''#        ,####,    ,#,          
            ##       ##  ##   ,#'  ##            #'  '#       #'       ,# #          
            ##       ##  #######   ##           ,######,      #####,      #          
            '#,     ,#'  ##    ##  '#,     ,#' ,#      #,     #,   #      #          
             '#######'   ##     ##  '#######'  #'      '#     '####' #    #          



                #########################################################
                #                        -***-                          #
                #          Department of theory and spectroscopy        #
                #                                                       #
                #                      Frank Neese                      #
                #                                                       #
                #     Directorship, Architecture, Infrastructure        #
                #                    SHARK, DRIVERS                     #
                #        Core code/Algorithms in most modules           #
                #                                                       #
                #        Max Planck Institute fuer Kohlenforschung      #
                #                Kaiser Wilhelm Platz 1                 #
                #                 D-45470 Muelheim/Ruhr                 #
                #                      Germany                          #
                #                                                       #
                #                  All rights reserved                  #
                #                        -***-                          #
                #########################################################


                         Program Version 6.1.1  -  RELEASE   -
                                (GIT: $487d211c$)
                          ($2025-11-21 10:33:24 +0100$)
                                                                         
                                  - NO-DMRG VERSION -                    
                                                                         


 With contributions from (in alphabetic order):
[Max-Planck-Institut fuer Kohlenforschung]                               
  Daniel Aravena         : Magnetic Suceptibility                        
  Michael Atanasov       : Ab Initio Ligand Field Theory (pilot matlab implementation)
  Alexander A. Auer      : GIAO ZORA, VPT2 properties, NMR spectrum      
  Ute Becker             : All parallelization in ORCA, NUMFREQ, NUMCALC 
  Giovanni Bistoni       : ED, misc. LED, open-shell LED, HFLD           
  Dmytro Bykov           : pre 5.0 version of the SCF Hessian            
  Marcos Casanova-Páez   : Triplet and SCS-CIS(D). UHF-(DLPNO)-IP/EA/STEOM-CCSD. UHF-CVS-IP/STEOM-CCSD   
  Vijay G. Chilkuri      : MRCI spin determinant printing, contributions to CSF-ICE 
  Pauline Colinet        : FMM embedding                                 
  Dipayan Datta          : RHF DLPNO-CCSD density                        
  Achintya Kumar Dutta   : EOM-CC, STEOM-CC                              
  Nicolas Foglia         : Exact transition moments, OPA infrastructure, MCD improvements    
  Dmitry Ganyushin       : Spin-Orbit,Spin-Spin,Magnetic field MRCI      
  Miquel Garcia-Rates    : C-PCM and meta-GGA Hessian, CCSD/C-PCM, Gaussian charge scheme 
  Tiago L. C. Gouveia    : GS-ROHF, GS-ROCIS                             
  Yang Guo               : DLPNO-NEVPT2, F12-NEVPT2, CIM, IAO-localization        
  Andreas Hansen         : Spin unrestricted coupled pair/coupled cluster methods 
  Ingolf Harden          : AUTO-CI MPn and infrastructure                
  Benjamin Helmich-Paris : MC-RPA, TRAH-(SCF,CASSCF), AVAS, COSX integrals, SCF dyn. polar., MC-PDFT, srDFT 
  Lee Huntington         : MR-EOM, pCC                                   
  Robert Izsak           : Overlap fitted RIJCOSX, COSX-SCS-MP3, EOM     
  Riya Kayal             : Wick's Theorem for AUTO-CI, AUTO-CI UHF-CCSDT 
  Emily Kempfer          : AUTO-CI RHF CISDT and CCSDT, approximate NEVPT4
  Christian Kollmar      : KDIIS, OOCD, Brueckner-CCSD(T), CCSD density, CASPT2, CASPT2-K, improved NEVPT2 
  Axel Koslowski         : Symmetry handling                             
  Simone Kossmann        : meta-GGA functionals, TD-DFT gradient, OOMP2, (MP2 Hessian; deprecated post 5.0) 
  Lucas Lang             : DCDCAS, Hyperfine gauge corrections, ICE-SOC+SSC
  Marvin Lechner         : AUTO-CI (C++ implementation), FIC-MRCC        
  Spencer Leger          : CASSCF response                               
  Dagmar Lenk            : GEPOL surface, SMD, ORCA-2-JSON               
  Dimitrios Liakos       : Extrapolation schemes; Compound Job, Property file
  Dimitrios Manganas     : Further ROCIS development; embedding schemes. LFT, Crystal Embedding 
  Dimitrios Pantazis     : SARC Basis sets                               
  Anastasios Papadopoulos: AUTO-CI, single reference methods and gradients 
  Taras Petrenko         : pre 6.0 DFT Hessian and TD-DFT gradient,  ECA, NRVS 
  Petra Pikulova         : Analytic Raman intensities                    
  Peter Pinski           : DLPNO-MP2, DLPNO-MP2 Gradient                 
  Shashank Vittal Rao    : ES-AILFT, MagRelax                            
  Christoph Reimann      : Effective Core Potentials                     
  Marius Retegan         : Local ZFS, SOC                                
  Christoph Riplinger    : Optimizer, TS searches, QM/MM, DLPNO-CCSD(T), (RO)-DLPNO pert. Triples 
  Michael Roemelt        : Original ROCIS implementation, recursive CI coupling coefficients
  Masaaki Saitow         : Open-shell DLPNO-CCSD energy and density      
  Barbara Sandhoefer     : DKH picture change effects                    
  Yorick L. A. Schmerwitz: GMF and freeze-and-release deltaSCF, NEB S-IDPP initial path                    
  Kantharuban Sivalingam : CASSCF convergence/infrastructure, NEVPT2, NEVPT3, NEVPT4(SD), FIC-MRCI and CEPA variants
  Bernardo de Souza      : ESD, SOC TD-DFT                               
  Georgi L. Stoychev     : AutoAux, RI-MP2 NMR, DLPNO-MP2 response, X2C  
  Van Anh Tran           : RI-MP2 g-tensors                              
  Willem Van den Heuvel  : Paramagnetic NMR                              
  Zikuan Wang            : NOTCH, Electric field optimization            
  Frank Wennmohs         : Technical directorship and infrastructure     
  Hang Xu                : AUTO-CI-Response properties                   
                                                                         
[FACCTs GmbH]                                                            
  Markus Bursch, Nicolas Foglia, Miquel Garcia-Rates, Ingolf Harden, Hagen Neugebauer, Anastasios Papadopoulos, 
  Christoph Riplinger, Bernardo de Souza, Georgi L. Stoychev                                                    
                                                                 
  APM, various basis sets, CI-OPT, improved COSX, DLPNO-Multilevel,           
  DOCKER, DRACO, updates on ESD, Fragmentator, GOAT, IRC, LR-CPCM, L-BFGS, MBIS, meta-GGA TD-DFT gradient, ML-optimized integration grids, 
  MM, NACMEs, nearIR, NEB, NEB-TS, NL-DFT gradient (VV10), 2- and 3-layer-ONIOM, interface openCOSMO-RS, QMMM,   
  Crystal-QMMM, RESP, rigid body optimization, SF, symmetry and pop. for TD-DFT, various functionals, SOLVATOR                                   
                                                                         
[Other institutions]                                                     
  V. Asgeirsson          : NEB                                           
  Christoph Bannwarth    : sTDA-DFT, sTD-DFT, PBEh-3c, B97-3c, D3        
  Giovanni Bistoni       : ETS/NOCV, ADLD/ADEX, COVALED                  
  Martin Brehm           : Molecular dynamics                            
  Ronald Cardenas        : ETS/NOCV                                      
  Martina Colucci        : COVALED                                       
  Sebastian Ehlert       : rSCAN, r2SCAN, r2SCAN-3c, D4, dhf basis sets  
  Marvin Friede          : D4 for Fr, Ra, Ac-Lr                          
  Lars Goerigk           : TD-DFT with DH, B97 family of functionals     
  Stefan Grimme          : VdW corrections, initial TS optimization, DFT functionals, gCP, sTDA/sTD-DF 
  Waldemar Hujo          : DFT-NL                                        
  H. Jonsson             : NEB                                           
  Holger Kruse           : gCP                                           
  Marcel Mueller         : wB97X-3c, vDZP basis set                      
  Hagen Neugebauer       : wr2SCAN, Native XTB                           
  Gianluca Regni         : ADLD/ADEX                                     
  Tobias Risthaus        : pre 6.0 range-separated hybrid DFT and stability analysis
  Lukas Wittmann         : regularized MP2, r2SCAN double-hybrids, wr2SCAN        
                                                                         
We gratefully acknowledge several colleagues who have allowed us to      
interface, adapt or use parts of their codes:                            
  Ed Valeev, F. Pavosevic, A. Kumar             : LibInt (2-el integral package), F12 methods 
  Garnet Chan, S. Sharma, J. Yang, R. Olivares  : DMRG                   
  Ulf Ekstrom                                   : XCFun DFT Library      
  Mihaly Kallay                                 : mrcc  (arbitrary order and MRCC methods)
  Frank Weinhold                                : gennbo (NPA and NBO analysis)           
  Simon Mueller                                 : openCOSMO-RS                            
  Christopher J. Cramer and Donald G. Truhlar   : smd solvation model                     
  S Lehtola, MJT Oliveira, MAL Marques          : LibXC Library                           
  Liviu Ungur et al                             : ANISO software                          


 Your calculation uses the libint2 library for the computation of 2-el integrals
 For citations please refer to: http://libint.valeyev.net

 Your ORCA version has been built with support for libXC version: 7.0.0
 For citations please refer to: https://libxc.gitlab.io

 This ORCA versions uses:
   CBLAS   interface :  Fast vector & matrix operations
   LAPACKE interface :  Fast linear algebra routines
   SCALAPACK package :  Parallel linear algebra routines
   Shared memory     :  Shared parallel matrices
   BLAS/LAPACK       :  OpenBLAS 0.3.29  USE64BITINT DYNAMIC_ARCH NO_AFFINITY Zen SINGLE_THREADED
        Core in use  :  Zen
   Copyright (c) 2011-2014, The OpenBLAS Project


  ***********************************
  * Starting time: Fri Apr 24 03:06:19 2026
  * Host name:     vmi3233575
  * Process ID:    1652632
  * Working dir.:  /root/b12_scan/jobs/random4_nn1.70
  ***********************************

NOTE: MaxCore=2500 MB was set to SCF,MP2,MDCI,CIPSI,MRCI,RASCI and CIS
      => If you want to overwrite this, your respective input block should be placed after the MaxCore statement
Your calculation utilizes the atom-pairwise dispersion correction
with the Becke-Johnson damping scheme (D3BJ)


================================================================================

----- Orbital basis set information -----
Your calculation utilizes the basis: def2-SVP
   F. Weigend and R. Ahlrichs, Phys. Chem. Chem. Phys. 7, 3297 (2005).

----- AuxJ basis set information -----
Your calculation utilizes the auxiliary basis: def2/J
   H-Rn: F. Weigend, Phys. Chem. Chem. Phys. 8, 1057 (2006).
   Fr-Lr: K. Eichkorn, F. Weigend, O. Treutler, R. Ahlrichs; Theor. Chem. Acc. 97, 119 (1997).

================================================================================
                                        WARNINGS
                       Please study these warnings very carefully!
================================================================================


WARNING: Geometry Optimization
  ===> : Switching off AutoStart
         For restart on a previous wavefunction, please use MOREAD

================================================================================
                                       INPUT FILE
================================================================================
NAME = random4_nn1.70.inp
|  1> ! BP86 def2-SVP def2/J RI Opt TightSCF D3BJ
|  2> ! SlowConv
|  3> 
|  4> %pal nprocs 8 end
|  5> %maxcore 2500
|  6> 
|  7> %geom
|  8>   MaxIter 300
|  9> end
| 10> 
| 11> * xyz 0 1
| 12> B     -2.33745064      0.64835562     -0.83778749
| 13> B      0.18865997      2.25673055     -0.28867742
| 14> B     -1.80912512      0.65651471      0.95342376
| 15> B     -0.06265976      0.02795749     -0.16282247
| 16> B      0.06945033      0.83280751      2.23115019
| 17> B      0.39634520     -1.20364456      2.18024478
| 18> B      2.04480144     -0.57930573      1.14220345
| 19> B      1.69594340     -1.15943478     -0.83976631
| 20> B      1.51844512      0.72702488     -1.59589425
| 21> B     -0.01888238     -2.27503450      0.92736424
| 22> B      0.09475180      1.17905651     -2.41047743
| 23> B     -1.78027936     -1.11102770     -1.29896103
| 24> *
| 25> 
| 26>                          ****END OF INPUT****
================================================================================

                       *****************************
                       * Geometry Optimization Run *
                       *****************************

Geometry optimization settings:
Update method            Update   .... BFGS
Choice of coordinates    CoordSys .... (2022) Redundant Internals
Initial Hessian          InHess   .... Almloef's Model
Max. no of cycles        MaxIter  .... 300

Convergence Tolerances:
Energy Change            TolE     ....  5.0000e-06 Eh
Max. Gradient            TolMAXG  ....  3.0000e-04 Eh/bohr
RMS Gradient             TolRMSG  ....  1.0000e-04 Eh/bohr
Max. Displacement        TolMAXD  ....  4.0000e-03 bohr
RMS Displacement         TolRMSD  ....  2.0000e-03 bohr
Strict Convergence                .... False

------------------------------------------------------------------------------
                        ORCA OPTIMIZATION COORDINATE SETUP
------------------------------------------------------------------------------

The optimization will be done in redundant internal coordinates (2022)
Making redundant internal coordinates   ...  (2022 redundants) done
Evaluating the initial hessian          ...  (Almloef) done
Evaluating the coordinates              ...  done
Calculating the B-matrix                .... done
Calculating the G-matrix                .... done
The number of degrees of freedom        ....  323

    -----------------------------------------------------------------
                    Redundant Internal Coordinates


    -----------------------------------------------------------------
         Definition                    Initial Value    Approx d2E/dq
    -----------------------------------------------------------------
      1. B(B   2,B   0)                  1.8675         0.145051   
      2. B(B   2,B   1)                  2.8451         0.010000   
      3. B(B   3,B   1)                  2.2464         0.036058   
      4. B(B   3,B   2)                  2.1659         0.048466   
      5. B(B   3,B   0)                  2.4526         0.016908   
      6. B(B   4,B   2)                  2.2788         0.032020   
      7. B(B   4,B   1)                  2.8968         0.010000   
      8. B(B   4,B   3)                  2.5291         0.012765   
      9. B(B   5,B   3)                  2.6865         0.010000   
     10. B(B   5,B   4)                  2.0632         0.070698   
     11. B(B   6,B   5)                  2.0457         0.075389   
     12. B(B   6,B   3)                  2.5521         0.011730   
     13. B(B   7,B   3)                  2.2273         0.038683   
     14. B(B   7,B   6)                  2.0944         0.063033   
     15. B(B   8,B   3)                  2.2455         0.036180   
     16. B(B   8,B   1)                  2.4119         0.019635   
     17. B(B   8,B   7)                  2.0401         0.076948   
     18. B(B   9,B   5)                  1.7000         0.268404   
     19. B(B   9,B   3)                  2.5484         0.011892   
     20. B(B  10,B   8)                  1.7014         0.267021   
     21. B(B  10,B   1)                  2.3816         0.021941   
     22. B(B  10,B   3)                  2.5302         0.012715   
     23. B(B  11,B   3)                  2.3534         0.024344   
     24. B(B  11,B   0)                  1.9022         0.127677   
     25. A(B   2,B   0,B   3)           58.3149         0.203691   
     26. A(B   2,B   0,B  11)           98.8419         0.270241   
     27. A(B   3,B   0,B  11)           63.9657         0.200426   
     28. A(B   2,B   1,B   8)          105.4884         0.141628   
     29. A(B   8,B   1,B  10)           41.5734         0.166370   
     30. A(B   3,B   1,B   4)           57.2462         0.146850   
     31. A(B   3,B   1,B   8)           57.5062         0.175577   
     32. A(B   2,B   1,B   4)           46.7539         0.124165   
     33. A(B   2,B   1,B   3)           48.6208         0.149389   
     34. A(B   4,B   1,B   8)          100.5090         0.139415   
     35. A(B   2,B   1,B  10)           96.1282         0.142967   
     36. A(B   3,B   1,B  10)           66.2069         0.177781   
     37. A(B   4,B   1,B  10)          123.4302         0.140698   
     38. A(B   3,B   2,B   4)           69.3101         0.192405   
     39. A(B   1,B   2,B   3)           51.0996         0.153569   
     40. A(B   0,B   2,B   4)          140.4763         0.221525   
     41. A(B   0,B   2,B   3)           74.4867         0.234560   
     42. A(B   0,B   2,B   1)           77.4302         0.171753   
     43. A(B   1,B   2,B   4)           67.8155         0.147787   
     44. A(B   6,B   3,B   9)           63.3862         0.148942   
     45. A(B   8,B   3,B  10)           41.2033         0.167527   
     46. A(B   1,B   3,B   8)           64.9505         0.188421   
     47. A(B   0,B   3,B   2)           47.1984         0.178490   
     48. A(B   1,B   3,B  10)           59.4624         0.167467   
     49. A(B   9,B   3,B  10)          142.1953         0.150045   
     50. A(B   6,B   3,B  11)          137.2567         0.159493   
     51. A(B   6,B   3,B   7)           51.4322         0.167284   
     52. A(B   0,B   3,B  11)           46.5765         0.165575   
     53. A(B   2,B   3,B   4)           57.4480         0.172973   
     54. A(B   4,B   3,B  11)          130.4756         0.160855   
     55. A(B   0,B   3,B   8)          113.4965         0.172760   
     56. A(B   1,B   3,B   5)          118.9849         0.157900   
     57. A(B   1,B   3,B   4)           74.4221         0.167536   
     58. A(B   1,B   3,B   7)          115.0595         0.189938   
     59. A(B   8,B   3,B  11)          110.8840         0.179963   
     60. A(B   2,B   3,B   8)          143.7378         0.195304   
     61. A(B   8,B   3,B   9)          122.8380         0.166347   
     62. A(B   4,B   3,B  10)          133.8559         0.151031   
     63. A(B   2,B   3,B  11)           78.5067         0.186185   
     64. A(B   1,B   3,B   6)           99.9239         0.166048   
     65. A(B   1,B   3,B   9)          156.7302         0.166288   
     66. A(B   4,B   3,B   9)           83.2092         0.150099   
     67. A(B   2,B   3,B   9)           93.1895         0.171638   
     68. A(B   9,B   3,B  11)           77.3900         0.159713   
     69. A(B   0,B   3,B   9)          111.2394         0.154113   
     70. A(B   7,B   3,B   9)           68.5727         0.167527   
     71. A(B   7,B   3,B  10)           85.6081         0.168725   
     72. A(B   0,B   3,B  10)           72.4309         0.155106   
     73. A(B  10,B   3,B  11)           80.6031         0.160791   
     74. A(B   7,B   3,B   8)           54.2710         0.190016   
     75. A(B   0,B   3,B   7)          141.5862         0.174038   
     76. A(B   2,B   3,B   6)          118.1232         0.171382   
     77. A(B   2,B   3,B  10)          112.0836         0.172899   
     78. A(B   0,B   3,B   6)          165.2014         0.153911   
     79. A(B   1,B   3,B   2)           80.2796         0.195222   
     80. A(B   6,B   3,B   8)           79.5706         0.166107   
     81. A(B   4,B   3,B   6)           63.1637         0.149910   
     82. A(B   6,B   3,B  10)          120.7394         0.149856   
     83. A(B   5,B   3,B   6)           45.8815         0.142436   
     84. A(B   7,B   3,B  11)           99.8767         0.181351   
     85. A(B   2,B   3,B   7)          161.4425         0.196926   
     86. A(B   5,B   3,B   8)          125.3817         0.157953   
     87. A(B   4,B   3,B   8)          117.9204         0.167597   
     88. A(B   5,B   3,B   7)           83.4412         0.159005   
     89. A(B   0,B   3,B   5)          120.9610         0.147046   
     90. A(B   4,B   3,B   7)          114.5888         0.168796   
     91. A(B   5,B   3,B  11)          108.8974         0.152038   
     92. A(B   4,B   3,B   5)           46.4816         0.143468   
     93. A(B   5,B   3,B  10)          166.5819         0.143420   
     94. A(B   5,B   3,B   9)           37.7835         0.142602   
     95. A(B   2,B   3,B   5)           79.7075         0.162670   
     96. A(B   0,B   3,B   4)          103.2059         0.155165   
     97. A(B   1,B   3,B  11)          122.3293         0.179893   
     98. A(B   0,B   3,B   1)           80.6409         0.172696   
     99. A(B   3,B   4,B   5)           70.7800         0.180465   
    100. A(B   2,B   4,B   5)           92.3167         0.201630   
    101. A(B   1,B   4,B   2)           65.4306         0.145316   
    102. A(B   1,B   4,B   5)          117.2073         0.156373   
    103. A(B   1,B   4,B   3)           48.3317         0.134733   
    104. A(B   2,B   4,B   3)           53.2419         0.165454   
    105. A(B   3,B   5,B   9)           66.6980         0.197527   
    106. A(B   3,B   5,B   6)           63.5897         0.170417   
    107. A(B   3,B   5,B   4)           62.7384         0.169242   
    108. A(B   6,B   5,B   9)           90.8708         0.273911   
    109. A(B   4,B   5,B   9)          126.9815         0.271241   
    110. A(B   4,B   5,B   6)           80.7320         0.225718   
    111. A(B   3,B   6,B   7)           56.2518         0.176431   
    112. A(B   3,B   6,B   5)           70.5288         0.180046   
    113. A(B   5,B   6,B   7)          105.1552         0.222213   
    114. A(B   3,B   7,B   6)           72.3160         0.203540   
    115. A(B   6,B   7,B   8)           96.2634         0.222832   
    116. A(B   3,B   7,B   8)           63.3196         0.208830   
    117. A(B   7,B   8,B  10)          119.7309         0.274553   
    118. A(B   1,B   8,B   3)           57.5432         0.175643   
    119. A(B   1,B   8,B  10)           68.2615         0.225211   
    120. A(B   1,B   8,B   7)          115.6941         0.191781   
    121. A(B   3,B   8,B  10)           78.4087         0.245419   
    122. A(B   3,B   8,B   7)           62.4094         0.207029   
    123. A(B   3,B   9,B   5)           75.5185         0.210739   
    124. A(B   1,B  10,B   3)           54.3306         0.159122   
    125. A(B   1,B  10,B   8)           70.1651         0.228678   
    126. A(B   3,B  10,B   8)           60.3880         0.212451   
    127. A(B   0,B  11,B   3)           69.4577         0.210009   
    128. D(B   0,B   2,B   1,B   4)   -160.8055         0.010000   
    129. D(B   1,B   2,B   0,B  11)    104.5410         0.010000   
    130. D(B   3,B   2,B   0,B  11)     51.8291         0.010000   
    131. D(B   4,B   2,B   0,B  11)     75.9616         0.010000   
    132. D(B   4,B   2,B   0,B   3)     24.1324         0.010000   
    133. D(B   3,B   2,B   1,B   8)      9.2325         0.010000   
    134. D(B   3,B   2,B   1,B  10)     50.5548         0.010000   
    135. D(B   0,B   2,B   1,B   8)    -70.8519         0.010000   
    136. D(B   3,B   2,B   1,B   4)    -80.7210         0.010000   
    137. D(B   0,B   2,B   1,B  10)    -29.5297         0.010000   
    138. D(B   1,B   2,B   0,B   3)     52.7119         0.010000   
    139. D(B   0,B   2,B   1,B   3)    -80.0845         0.010000   
    140. D(B   2,B   3,B   0,B  11)   -120.1683         0.010000   
    141. D(B  11,B   3,B   1,B   8)    -99.7811         0.010000   
    142. D(B  11,B   3,B   1,B   4)    128.3934         0.010000   
    143. D(B   0,B   3,B   1,B  10)    -75.0506         0.010000   
    144. D(B  11,B   3,B   1,B  10)    -53.2946         0.010000   
    145. D(B   2,B   3,B   1,B   4)     58.7373         0.010000   
    146. D(B   7,B   3,B   0,B   2)    155.7382         0.010000   
    147. D(B   0,B   3,B   2,B   4)   -163.8516         0.010000   
    148. D(B   8,B   3,B   2,B   1)    -16.3062         0.010000   
    149. D(B   7,B   3,B   2,B   1)    147.1407         0.010000   
    150. D(B   9,B   3,B   0,B  11)    -46.3432         0.010000   
    151. D(B   2,B   3,B   1,B  10)   -122.9507         0.010000   
    152. D(B   7,B   3,B   1,B   2)   -169.0109         0.010000   
    153. D(B   2,B   3,B   1,B   8)   -169.4372         0.010000   
    154. D(B   7,B   3,B   2,B   0)   -126.6572         0.010000   
    155. D(B  11,B   3,B   1,B   2)     69.6561         0.010000   
    156. D(B   8,B   3,B   2,B   4)    -93.9557         0.010000   
    157. D(B   4,B   3,B   2,B   0)    163.8516         0.010000   
    158. D(B  11,B   3,B   2,B   0)    -39.8491         0.010000   
    159. D(B   0,B   3,B   2,B   1)    -86.2020         0.010000   
    160. D(B  11,B   3,B   2,B   4)    156.2993         0.010000   
    161. D(B   8,B   3,B   0,B   2)   -142.7236         0.010000   
    162. D(B   7,B   3,B   1,B   8)     21.5519         0.010000   
    163. D(B   4,B   3,B   0,B   2)    -13.9339         0.010000   
    164. D(B   7,B   3,B   1,B  10)     68.0384         0.010000   
    165. D(B  11,B   3,B   2,B   1)   -126.0511         0.010000   
    166. D(B   4,B   3,B   0,B  11)   -134.1022         0.010000   
    167. D(B   8,B   3,B   2,B   0)     69.8958         0.010000   
    168. D(B   7,B   3,B   2,B   4)     69.4912         0.010000   
    169. D(B  10,B   3,B   0,B  11)     93.6615         0.010000   
    170. D(B   8,B   3,B   0,B  11)     97.1082         0.010000   
    171. D(B  10,B   3,B   0,B   2)   -146.1702         0.010000   
    172. D(B   0,B   3,B   1,B   8)   -121.5372         0.010000   
    173. D(B   9,B   3,B   0,B   2)     73.8250         0.010000   
    174. D(B   7,B   3,B   0,B  11)     35.5699         0.010000   
    175. D(B   0,B   3,B   1,B   4)    106.6373         0.010000   
    176. D(B  11,B   3,B   0,B   2)    120.1683         0.010000   
    177. D(B   4,B   3,B   2,B   1)     77.6495         0.010000   
    178. D(B   0,B   3,B   1,B   2)     47.9000         0.010000   
    179. D(B   5,B   4,B   2,B   0)    -88.7083         0.010000   
    180. D(B   5,B   4,B   2,B   1)   -118.9891         0.010000   
    181. D(B   5,B   4,B   2,B   3)    -63.8036         0.010000   
    182. D(B   3,B   4,B   2,B   1)    -55.1856         0.010000   
    183. D(B   2,B   4,B   1,B   8)   -101.4423         0.010000   
    184. D(B   2,B   4,B   1,B  10)    -63.5576         0.010000   
    185. D(B   2,B   4,B   1,B   3)    -61.7069         0.010000   
    186. D(B   3,B   4,B   2,B   0)    -24.9048         0.010000   
    187. D(B   5,B   4,B   1,B   8)    -22.1070         0.010000   
    188. D(B   5,B   4,B   1,B   3)     17.6284         0.010000   
    189. D(B   5,B   4,B   1,B  10)     15.7777         0.010000   
    190. D(B   5,B   4,B   1,B   2)     79.3353         0.010000   
    191. D(B   2,B   4,B   3,B   8)    138.1020         0.010000   
    192. D(B   5,B   4,B   3,B   6)    -53.4555         0.010000   
    193. D(B   5,B   4,B   3,B   9)     10.0991         0.010000   
    194. D(B   5,B   4,B   3,B  10)   -161.4109         0.010000   
    195. D(B   5,B   4,B   3,B   1)   -163.4272         0.010000   
    196. D(B   5,B   4,B   3,B   8)   -113.6070         0.010000   
    197. D(B   2,B   4,B   3,B  11)    -31.1863         0.010000   
    198. D(B   5,B   4,B   3,B   7)    -52.5731         0.010000   
    199. D(B   5,B   4,B   3,B   0)    120.3903         0.010000   
    200. D(B   5,B   4,B   3,B  11)     77.1047         0.010000   
    201. D(B   2,B   4,B   3,B   7)   -160.8640         0.010000   
    202. D(B   5,B   4,B   3,B   2)    108.2909         0.010000   
    203. D(B   1,B   4,B   2,B   0)     30.2808         0.010000   
    204. D(B   2,B   4,B   3,B   0)     12.0994         0.010000   
    205. D(B   9,B   5,B   4,B   1)    -32.9330         0.010000   
    206. D(B   9,B   5,B   4,B   2)     30.5087         0.010000   
    207. D(B   6,B   5,B   4,B   3)     64.9817         0.010000   
    208. D(B   6,B   5,B   4,B   2)    114.5618         0.010000   
    209. D(B   6,B   5,B   3,B  11)    138.5309         0.010000   
    210. D(B   6,B   5,B   3,B   2)   -147.5035         0.010000   
    211. D(B   4,B   5,B   3,B   1)     18.3064         0.010000   
    212. D(B   6,B   5,B   3,B   7)     40.3015         0.010000   
    213. D(B   6,B   5,B   4,B   1)     51.1200         0.010000   
    214. D(B   4,B   5,B   3,B   6)     93.0736         0.010000   
    215. D(B   4,B   5,B   3,B   9)   -163.4893         0.010000   
    216. D(B   4,B   5,B   3,B  10)     97.8754         0.010000   
    217. D(B   4,B   5,B   3,B   8)     96.7546         0.010000   
    218. D(B   4,B   5,B   3,B   7)    133.3751         0.010000   
    219. D(B   4,B   5,B   3,B   0)    -78.3287         0.010000   
    220. D(B   4,B   5,B   3,B  11)   -128.3955         0.010000   
    221. D(B   9,B   5,B   4,B   3)    -19.0713         0.010000   
    222. D(B   4,B   5,B   3,B   2)    -54.4299         0.010000   
    223. D(B   6,B   5,B   3,B   0)   -171.4022         0.010000   
    224. D(B   3,B   6,B   5,B   9)     63.3029         0.010000   
    225. D(B   3,B   6,B   5,B   4)    -64.0775         0.010000   
    226. D(B   7,B   6,B   5,B   9)     18.2324         0.010000   
    227. D(B   7,B   6,B   5,B   4)   -109.1481         0.010000   
    228. D(B   7,B   6,B   3,B   0)    154.8557         0.010000   
    229. D(B   7,B   6,B   3,B  11)     57.3462         0.010000   
    230. D(B   7,B   6,B   3,B   2)    161.5546         0.010000   
    231. D(B   5,B   6,B   3,B   1)    121.0370         0.010000   
    232. D(B   5,B   6,B   3,B   9)    -41.7998         0.010000   
    233. D(B   5,B   6,B   3,B  10)   -178.7050         0.010000   
    234. D(B   5,B   6,B   3,B   4)     54.2437         0.010000   
    235. D(B   5,B   6,B   3,B   8)   -176.9491         0.010000   
    236. D(B   5,B   6,B   3,B   7)   -124.7300         0.010000   
    237. D(B   7,B   6,B   5,B   3)    -45.0705         0.010000   
    238. D(B   5,B   6,B   3,B   0)     30.1257         0.010000   
    239. D(B   5,B   6,B   3,B  11)    -67.3838         0.010000   
    240. D(B   5,B   6,B   3,B   2)     36.8245         0.010000   
    241. D(B   8,B   7,B   6,B   5)    112.7904         0.010000   
    242. D(B   8,B   7,B   3,B   0)     83.2987         0.010000   
    243. D(B   8,B   7,B   3,B  11)    108.6925         0.010000   
    244. D(B   6,B   7,B   3,B   1)     82.5591         0.010000   
    245. D(B   6,B   7,B   3,B   5)    -36.4336         0.010000   
    246. D(B   6,B   7,B   3,B   9)    -72.3879         0.010000   
    247. D(B   6,B   7,B   3,B  10)    135.7990         0.010000   
    248. D(B   6,B   7,B   3,B   4)     -1.0070         0.010000   
    249. D(B   8,B   7,B   3,B   2)   -168.0191         0.010000   
    250. D(B   6,B   7,B   3,B   8)    106.7608         0.010000   
    251. D(B   6,B   7,B   3,B   0)   -169.9406         0.010000   
    252. D(B   6,B   7,B   3,B  11)   -144.5468         0.010000   
    253. D(B   8,B   7,B   6,B   3)     59.3957         0.010000   
    254. D(B   6,B   7,B   3,B   2)    -61.2584         0.010000   
    255. D(B   3,B   7,B   6,B   5)     53.3947         0.010000   
    256. D(B   1,B   8,B   7,B   3)     22.5717         0.010000   
    257. D(B   1,B   8,B   7,B   6)    -44.0275         0.010000   
    258. D(B  10,B   8,B   7,B   3)    -55.9771         0.010000   
    259. D(B  10,B   8,B   7,B   6)   -122.5763         0.010000   
    260. D(B  10,B   8,B   3,B   7)    132.7185         0.010000   
    261. D(B  10,B   8,B   3,B   0)     -4.9915         0.010000   
    262. D(B  10,B   8,B   3,B  11)     45.4873         0.010000   
    263. D(B  10,B   8,B   3,B   2)    -53.6945         0.010000   
    264. D(B   7,B   8,B   3,B   1)    155.8005         0.010000   
    265. D(B   7,B   8,B   3,B   5)     46.8867         0.010000   
    266. D(B   7,B   8,B   3,B   6)     49.5729         0.010000   
    267. D(B   7,B   8,B   3,B   9)      0.9432         0.010000   
    268. D(B   7,B   8,B   3,B  10)   -132.7185         0.010000   
    269. D(B   7,B   8,B   3,B   4)    101.4727         0.010000   
    270. D(B   7,B   8,B   3,B   0)   -137.7099         0.010000   
    271. D(B   7,B   8,B   3,B  11)    -87.2312         0.010000   
    272. D(B   7,B   8,B   3,B   2)    173.5870         0.010000   
    273. D(B  10,B   8,B   1,B   4)    129.4392         0.010000   
    274. D(B  10,B   8,B   1,B   2)     81.6358         0.010000   
    275. D(B  10,B   8,B   1,B   3)     89.8417         0.010000   
    276. D(B   7,B   8,B   1,B   4)     15.8213         0.010000   
    277. D(B   3,B   8,B   7,B   6)    -66.5992         0.010000   
    278. D(B   7,B   8,B   1,B   2)    -31.9821         0.010000   
    279. D(B   7,B   8,B   1,B  10)   -113.6179         0.010000   
    280. D(B   7,B   8,B   1,B   3)    -23.7761         0.010000   
    281. D(B   3,B   9,B   5,B   6)    -60.6002         0.010000   
    282. D(B   3,B   9,B   5,B   4)     18.4361         0.010000   
    283. D(B   5,B   9,B   3,B   1)      3.9785         0.010000   
    284. D(B   5,B   9,B   3,B   6)     51.3521         0.010000   
    285. D(B   5,B   9,B   3,B  10)    158.0201         0.010000   
    286. D(B   5,B   9,B   3,B   4)    -11.9783         0.010000   
    287. D(B   5,B   9,B   3,B   8)    106.9936         0.010000   
    288. D(B   5,B   9,B   3,B   7)    107.8161         0.010000   
    289. D(B   5,B   9,B   3,B   0)   -113.5474         0.010000   
    290. D(B   5,B   9,B   3,B  11)   -146.1257         0.010000   
    291. D(B   5,B   9,B   3,B   2)    -68.6564         0.010000   
    292. D(B   1,B  10,B   8,B   3)     59.4697         0.010000   
    293. D(B   1,B  10,B   8,B   7)    108.0473         0.010000   
    294. D(B   3,B  10,B   8,B   1)    -59.4697         0.010000   
    295. D(B   1,B  10,B   3,B   0)     89.3547         0.010000   
    296. D(B   1,B  10,B   3,B  11)    136.6339         0.010000   
    297. D(B   1,B  10,B   3,B   2)     63.1986         0.010000   
    298. D(B   8,B  10,B   3,B   1)     85.8442         0.010000   
    299. D(B   8,B  10,B   3,B   5)     -1.3872         0.010000   
    300. D(B   8,B  10,B   3,B   6)      2.6221         0.010000   
    301. D(B   8,B  10,B   3,B   9)    -82.5735         0.010000   
    302. D(B   8,B  10,B   3,B   4)     83.5892         0.010000   
    303. D(B   8,B  10,B   3,B   7)    -36.7392         0.010000   
    304. D(B   8,B  10,B   3,B   0)    175.1989         0.010000   
    305. D(B   8,B  10,B   3,B  11)   -137.5218         0.010000   
    306. D(B   8,B  10,B   3,B   2)    149.0429         0.010000   
    307. D(B   3,B  10,B   1,B   4)      1.7010         0.010000   
    308. D(B   3,B  10,B   1,B   2)    -39.2916         0.010000   
    309. D(B   3,B  10,B   8,B   7)     48.5777         0.010000   
    310. D(B   3,B  10,B   1,B   8)     67.1894         0.010000   
    311. D(B   8,B  10,B   1,B   4)    -65.4884         0.010000   
    312. D(B   8,B  10,B   1,B   2)   -106.4810         0.010000   
    313. D(B   8,B  10,B   1,B   3)    -67.1894         0.010000   
    314. D(B   0,B  11,B   3,B   1)    -30.2349         0.010000   
    315. D(B   0,B  11,B   3,B   5)    115.1313         0.010000   
    316. D(B   0,B  11,B   3,B   6)    159.5945         0.010000   
    317. D(B   0,B  11,B   3,B   9)    136.2896         0.010000   
    318. D(B   0,B  11,B   3,B  10)    -74.6546         0.010000   
    319. D(B   0,B  11,B   3,B   4)     66.7885         0.010000   
    320. D(B   0,B  11,B   3,B   8)   -103.0874         0.010000   
    321. D(B   0,B  11,B   3,B   7)   -158.4775         0.010000   
    322. D(B   0,B  11,B   3,B   2)     40.3392         0.010000   
    323. D(B   3,B  11,B   0,B   2)    -48.1194         0.010000   
    -----------------------------------------------------------------

Number of atoms                         .... 12
Number of degrees of freedom            .... 323


         *************************************************************
         *                GEOMETRY OPTIMIZATION CYCLE   1            *
         *************************************************************
---------------------------------
CARTESIAN COORDINATES (ANGSTROEM)
---------------------------------
  B     -2.337451    0.648356   -0.837787
  B      0.188660    2.256731   -0.288677
  B     -1.809125    0.656515    0.953424
  B     -0.062660    0.027957   -0.162822
  B      0.069450    0.832808    2.231150
  B      0.396345   -1.203645    2.180245
  B      2.044801   -0.579306    1.142203
  B      1.695943   -1.159435   -0.839766
  B      1.518445    0.727025   -1.595894
  B     -0.018882   -2.275034    0.927364
  B      0.094752    1.179057   -2.410477
  B     -1.780279   -1.111028   -1.298961

----------------------------
CARTESIAN COORDINATES (A.U.)
----------------------------
  NO LB      ZA    FRAG     MASS         X           Y           Z
   0 B     5.0000    0    10.810   -4.417142    1.225215   -1.583189
   1 B     5.0000    0    10.810    0.356516    4.264603   -0.545521
   2 B     5.0000    0    10.810   -3.418751    1.240633    1.801710
   3 B     5.0000    0    10.810   -0.118410    0.052832   -0.307690
   4 B     5.0000    0    10.810    0.131242    1.573778    4.216263
   5 B     5.0000    0    10.810    0.748984   -2.274559    4.120066
   6 B     5.0000    0    10.810    3.864115   -1.094729    2.158452
   7 B     5.0000    0    10.810    3.204869   -2.191014   -1.586928
   8 B     5.0000    0    10.810    2.869445    1.373878   -3.015803
   9 B     5.0000    0    10.810   -0.035683   -4.299192    1.752464
  10 B     5.0000    0    10.810    0.179055    2.228094   -4.555142
  11 B     5.0000    0    10.810   -3.364240   -2.099538   -2.454681

--------------------------------
INTERNAL COORDINATES (ANGSTROEM)
--------------------------------
 B      0   0   0     0.000000000000     0.00000000     0.00000000
 B      1   0   0     3.044606148319     0.00000000     0.00000000
 B      1   2   0     1.867520325983    65.79406560     0.00000000
 B      3   1   2     2.165924993734    74.48670913   307.28812902
 B      3   1   2     2.278751786087   140.47626410   331.42055955
 B      5   3   1     2.063150176358    92.31665791   271.29165025
 B      6   5   3     2.045662912757    80.73202635   114.56176281
 B      7   6   5     2.094386730354   105.15519495   250.85191976
 B      8   7   6     2.040089495551    96.26342128   112.79039116
 B      6   5   3     1.699999998305   126.98154763    30.50869885
 B      9   8   7     1.701405601575   119.73088244   237.42373544
 B      1   2   3     1.902248810210   106.81602534   267.69657380

---------------------------
INTERNAL COORDINATES (A.U.)
---------------------------
 B      0   0   0     0.000000000000     0.00000000     0.00000000
 B      1   0   0     5.753471805976     0.00000000     0.00000000
 B      1   2   0     3.529101965639    65.79406560     0.00000000
 B      3   1   2     4.093005064773    74.48670913   307.28812902
 B      3   1   2     4.306216802888   140.47626410   331.42055955
 B      5   3   1     3.898788806468    92.31665791   271.29165025
 B      6   5   3     3.865742667430    80.73202635   114.56176281
 B      7   6   5     3.957817338887   105.15519495   250.85191976
 B      8   7   6     3.855210435282    96.26342128   112.79039116
 B      6   5   3     3.212534424463   126.98154763    30.50869885
 B      9   8   7     3.215190629697   119.73088244   237.42373544
 B      1   2   3     3.594729289875   106.81602534   267.69657380

---------------------
BASIS SET INFORMATION
---------------------
There are 1 groups of distinct atoms

 Group   1 Type B   : 7s4p1d contracted to 3s2p1d pattern {511/31/1}

Atom   0B    basis set group =>   1
Atom   1B    basis set group =>   1
Atom   2B    basis set group =>   1
Atom   3B    basis set group =>   1
Atom   4B    basis set group =>   1
Atom   5B    basis set group =>   1
Atom   6B    basis set group =>   1
Atom   7B    basis set group =>   1
Atom   8B    basis set group =>   1
Atom   9B    basis set group =>   1
Atom  10B    basis set group =>   1
Atom  11B    basis set group =>   1
---------------------------------
AUXILIARY/J BASIS SET INFORMATION
---------------------------------
There are 1 groups of distinct atoms

 Group   1 Type B   : 12s5p4d2f1g contracted to 6s4p3d1f1g pattern {711111/2111/211/2/1}

Atom   0B    basis set group =>   1
Atom   1B    basis set group =>   1
Atom   2B    basis set group =>   1
Atom   3B    basis set group =>   1
Atom   4B    basis set group =>   1
Atom   5B    basis set group =>   1
Atom   6B    basis set group =>   1
Atom   7B    basis set group =>   1
Atom   8B    basis set group =>   1
Atom   9B    basis set group =>   1
Atom  10B    basis set group =>   1
Atom  11B    basis set group =>   1


           ************************************************************
           *        Program running with 8 parallel MPI-processes     *
           *              working on a common directory               *
           ************************************************************
------------------------------------------------------------------------------
                             ORCA STARTUP CALCULATIONS
                           -- RI-GTO INTEGRALS CHOSEN --
------------------------------------------------------------------------------
------------------------------------------------------------------------------
                   ___                                                        
                  /   \      - P O W E R E D   B Y -                         
                 /     \                                                     
                 |  |  |   _    _      __       _____    __    __             
                 |  |  |  | |  | |    /  \     |  _  \  |  |  /  |          
                  \  \/   | |  | |   /    \    | | | |  |  | /  /          
                 / \  \   | |__| |  /  /\  \   | |_| |  |  |/  /          
                |  |  |   |  __  | /  /__\  \  |    /   |      \           
                |  |  |   | |  | | |   __   |  |    \   |  |\   \          
                \     /   | |  | | |  |  |  |  | |\  \  |  | \   \       
                 \___/    |_|  |_| |__|  |__|  |_| \__\ |__|  \__/        
                                                                              
                      - O R C A' S   B I G   F R I E N D -                    
                                      &                                       
                       - I N T E G R A L  F E E D E R -                       
                                                                              
 v1 FN, 2020, v2 2021, v3 2022-2024                                           
------------------------------------------------------------------------------


----------------------
SHARK INTEGRAL PACKAGE
----------------------

Number of atoms                             ...     12
Number of basis functions                   ...    168
Number of shells                            ...     72
Maximum angular momentum                    ...      2
Integral batch strategy                     ... SHARK/LIBINT Hybrid
RI-J (if used) integral strategy            ... SPLIT-RIJ (Revised 2003 algorithm where possible)
Printlevel                                  ...      1
Contraction scheme used                     ... SEGMENTED contraction
Prescreening option                         ... SCHWARTZ
   Thresh                                   ... 2.500e-11
   Tcut                                     ... 2.500e-12
   Tpresel                                  ... 2.500e-12 
Coulomb Range Separation                    ... NOT USED
Exchange Range Separation                   ... NOT USED
Multipole approximations                    ... NOT USED
Finite Nucleus Model                        ... NOT USED
CABS basis                                  ... NOT available
Auxiliary Coulomb fitting basis             ... AVAILABLE
   # of basis functions in Aux-J            ...    588
   # of shells in Aux-J                     ...    180
   Maximum angular momentum in Aux-J        ...      4
Auxiliary J/K fitting basis                 ... NOT available
Auxiliary Correlation fitting basis         ... NOT available
Auxiliary 'external' fitting basis          ... NOT available

Checking pre-screening integrals            ... done (  0.0 sec) Dimension = 72
   => SHARK Basis and OBASIS are compatible. Storing Pre-screening
Shell pair information
Shell pair cut-off parameter TPreSel        ...   2.5e-12
Total number of shell pairs                 ...      2628
Shell pairs after pre-screening             ...      2562
Total number of primitive shell pairs       ...     10596
Primitive shell pairs kept                  ...      7521
          la=0 lb=0:    616 shell pairs
          la=1 lb=0:    862 shell pairs
          la=1 lb=1:    300 shell pairs
          la=2 lb=0:    418 shell pairs
          la=2 lb=1:    288 shell pairs
          la=2 lb=2:     78 shell pairs

Checking whether 4 symmetric matrices of dimension 168 fit in memory
:Max Core in MB      =   2500.00
 MB in use           =      6.82
 MB left             =   2493.18
 MB needed           =      0.43
 Data fit in memory  = YES
Calculating RI/J V-Matrix + Cholesky decomp.... done (  0.0 sec)
Calculating Nuclear repulsion               ... done (  0.0 sec) ENN=    291.045899035468 Eh

Diagonalization of the overlap matrix:
Smallest eigenvalue                        ... 1.148e-03
Time for diagonalization                   ...    0.006 sec
Threshold for overlap eigenvalues          ... 1.000e-07
Number of eigenvalues below threshold      ... 0
Time for construction of square roots      ...    0.010 sec
Total time needed                          ...    0.025 sec

-------------------
DFT GRID GENERATION
-------------------

General Integration Accuracy     IntAcc      ... 4.388
Radial Grid Type                 RadialGrid  ... OptM3 with GC (2021)
Angular Grid (max. ang.)         AngularGrid ... 4 (Lebedev-302)
Angular grid pruning method      GridPruning ... 4 (adaptive)
Weight generation scheme         WeightScheme... mBecke (2022)
Basis function cutoff            BFCut       ... 1.0000e-11
Integration weight cutoff        WCut        ... 1.0000e-14
Partially contracted basis set               ... off
Rotationally invariant grid construction     ... off
Angular grids for H and He will be reduced by one unit

Total number of grid points                  ...    71889
Total number of batches                      ...     1130
Average number of points per batch           ...       63
Average number of grid points per atom       ...     5991
Grids setup in   0.7 sec
Initializing property integral containers    ... done (  0.0 sec)

SHARK setup successfully completed in   0.9 seconds

Maximum memory used throughout the entire STARTUP-calculation: 19.9 MB


           ************************************************************
           *        Program running with 8 parallel MPI-processes     *
           *              working on a common directory               *
           ************************************************************
-------------------------------------------------------------------------------
                                 ORCA GUESS
                   Start orbitals & Density for SCF / CASSCF
-------------------------------------------------------------------------------

------------
SCF SETTINGS
------------
Hamiltonian:
 Density Functional     Method          .... DFT(GTOs)
 Exchange Functional    Exchange        .... B88
   X-Alpha parameter    XAlpha          ....  0.666667
   Becke's b parameter  XBeta           ....  0.004200
 Correlation Functional Correlation     .... P86
 LDA part of GGA corr.  LDAOpt          .... PW91-LDA
 Gradients option       PostSCFGGA      .... off
   NL short-range parameter             ....  4.400000
 RI-approximation to the Coulomb term is turned on
   Number of AuxJ basis functions       .... 588


General Settings:
 Integral files         IntName         .... random4_nn1.70
 Hartree-Fock type      HFTyp           .... RHF
 Total Charge           Charge          ....    0
 Multiplicity           Mult            ....    1
 Number of Electrons    NEL             ....   60
 Basis Dimension        Dim             ....  168
 Nuclear Repulsion      ENuc            ....    291.0458990355 Eh

Convergence Acceleration:
 AO-DIIS                CNVDIIS         .... on
   Start iteration      DIISMaxIt       ....     0
   Startup error        DIISStart       ....  0.200000
   # of expansion vecs  DIISMaxEq       ....     5
   Bias factor          DIISBfac        ....   1.050
   Max. coefficient     DIISMaxC        ....  10.000
 MO-DIIS                CNVKDIIS        .... off
 Trust-Rad. Augm. Hess. CNVTRAH         .... auto
   Auto Start mean grad. ratio tolernc. ....  1.125000
   Auto Start start iteration           ....    50
   Auto Start num. interpolation iter.  ....    10
   Max. Number of Micro iterations      ....    24
   Max. Number of Macro iterations      .... Maxiter - #DIIS iter
   Number of Davidson start vectors     ....     2
   Converg. threshold    (grad. norm)   ....   1.000e-05
   Grad. Scal. Fac. for Micro threshold ....   0.100
   Minimum threshold for Micro iter.    ....   1.000e-02
   NR start threshold (gradient norm)   ....   1.000e-04
   Initial trust radius                 ....   0.400
   Minimum AH scaling param. (alpha)    ....   1.000
   Maximum AH scaling param. (alpha)    .... 1000.000
   Quad. conv. algorithm                .... NR
   White noise on init. David. guess    .... on
   Maximum white noise                  ....   0.010
   Pseudo random numbers                .... off
   Inactive MOs                         .... canonical
   Orbital update algorithm             .... Taylor
   Preconditioner                       .... Diag
   Full preconditioner red. dimension   ....   250
 SOSCF                 CNVSOSCF           .... on
   Start iteration     SOSCFMaxIt         ....   150
   Startup grad/error  SOSCFStart         ....  0.001000
   Hessian update      SOSCFHessUp        .... L-BFGS
   Autom. constraints  SOSCFAutoConstrain .... off
 Level Shifting         CNVShift        .... on
   Level shift para.    LevelShift      ....    0.2500
   Turn off err/grad.   ShiftErr        ....    0.0000
 Zerner damping         CNVZerner       .... off
 Static damping         CNVDamp         .... on
   Fraction old density DampFac         ....    0.8500
   Max. Damping (<1)    DampMax         ....    0.9800
   Min. Damping (>=0)   DampMin         ....    0.0000
   Turn off err/grad.   DampErr         ....    0.0300

SCF Procedure:
 Maximum # iterations   MaxIter         ....   125
 SCF integral mode      SCFMode         .... Direct
   Integral package                     .... SHARK and LIBINT hybrid scheme
 Reset frequency        DirectResetFreq ....    20
 Integral Threshold     Thresh          ....  2.500e-11 Eh
 Primitive CutOff       TCut            ....  2.500e-12 Eh

Convergence Tolerance:
 Convergence Check Mode ConvCheckMode   .... Total+1el-Energy
 Convergence forced     ConvForced      .... 0
 Energy Change          TolE            ....  1.000e-08 Eh
 1-El. energy change                    ....  1.000e-05 Eh
 Orbital Gradient       TolG            ....  1.000e-05
 Orbital Rotation angle TolX            ....  1.000e-05
 DIIS Error             TolErr          ....  5.000e-07

------------------------------
INITIAL GUESS: MODEL POTENTIAL
------------------------------
Loading Hartree-Fock densities                     ... done
Calculating cut-offs                               ... done
Initializing the effective Hamiltonian             ... done
Setting up the integral package (SHARK)            ... done
Starting the Coulomb interaction                   ... done (   0.0 sec)
Making the grid                                    ... done (   0.1 sec)
Mapping shells                                     ... done
Starting the XC term evaluation                    ... done (   0.0 sec)
  promolecular density results
     # of electrons  =     59.999381560
     EX              =    -44.908777047
     EC              =     -1.872553338
     EX+EC           =    -46.781330386
Transforming the Hamiltonian                       ... done (   0.0 sec)
Diagonalizing the Hamiltonian                      ... done (   0.0 sec)
Back transforming the eigenvectors                 ... done (   0.0 sec)
Now organizing SCF variables                       ... done
                      ------------------
                      INITIAL GUESS DONE (   0.2 sec)
                      ------------------
             **** ENERGY FILE WAS UPDATED (random4_nn1.70.en.tmp) ****
Finished Guess after   0.7 sec
Maximum memory used throughout the entire GUESS-calculation: 9.6 MB


           ************************************************************
           *        Program running with 8 parallel MPI-processes     *
           *              working on a common directory               *
           ************************************************************

-------------------------------------------------------------------------------------------
                                      ORCA LEAN-SCF
                              memory conserving SCF solver
-------------------------------------------------------------------------------------------

----------------------------------------D-I-I-S--------------------------------------------
Iteration    Energy (Eh)           Delta-E    RMSDP     MaxDP     DIISErr   Damp  Time(sec)
-------------------------------------------------------------------------------------------
               ***  Starting incremental Fock matrix formation  ***
    1    -296.6637494106319650     0.00e+00  5.28e-03  4.72e-02  9.22e-02  0.850   0.4
Warning: op=0 Small HOMO/LUMO gap (  -0.034) - skipping pre-diagonalization
         Will do a full diagonalization
    2    -296.7187803611205368    -5.50e-02  6.59e-03  4.69e-02  6.22e-02  0.850   0.4
                               ***Turning on AO-DIIS***
    3    -296.7497426190187184    -3.10e-02  3.99e-03  2.82e-02  2.63e-02  0.850   0.4
    4    -296.7608760582640457    -1.11e-02  1.75e-02  1.09e-01  1.69e-02  0.000   0.3
    5    -296.7566571819684782     4.22e-03  6.09e-03  4.84e-02  6.22e-02  0.000   0.3
    6    -296.7961962226254968    -3.95e-02  6.12e-04  5.62e-03  3.29e-02  0.850   0.3
    7    -296.7983270391859492    -2.13e-03  8.38e-04  6.95e-03  3.07e-02  0.850   0.3
    8    -296.8011622994119421    -2.84e-03  9.11e-04  7.04e-03  2.72e-02  0.850   0.3
    9    -296.8040693783037227    -2.91e-03  6.85e-03  5.75e-02  2.29e-02  0.000   0.3
   10    -296.8153110433558481    -1.12e-02  1.45e-03  1.11e-02  3.19e-03  0.000   0.3
   11    -296.8154768478452183    -1.66e-04  7.29e-04  5.20e-03  5.01e-03  0.000   0.3
   12    -296.8159328406216559    -4.56e-04  5.87e-04  4.30e-03  3.15e-03  0.000   0.3
   13    -296.8161950679852339    -2.62e-04  4.77e-04  1.62e-03  1.49e-03  0.000   0.3
                              *** Initializing SOSCF ***
---------------------------------------S-O-S-C-F--------------------------------------
Iteration    Energy (Eh)           Delta-E    RMSDP     MaxDP     MaxGrad    Time(sec)
--------------------------------------------------------------------------------------
   14    -296.8163514750133913    -1.56e-04  4.38e-04  1.41e-03  9.28e-04     0.3
               *** Restarting incremental Fock matrix formation ***
   15    -296.8164869586929058    -1.35e-04  9.16e-04  3.21e-03  2.16e-03     0.3
               *** Scaled step length from 0.447854 to 0.200000 ***
   16    -296.8167383150914134    -2.51e-04  7.32e-03  2.45e-02  1.93e-03     0.3
   17    -296.8177200159183826    -9.82e-04  6.11e-03  2.61e-02  3.21e-03     0.3
   18    -296.8180433367248838    -3.23e-04  2.19e-03  1.62e-02  3.06e-03     0.3
   19    -296.8187266965512094    -6.83e-04  3.93e-03  1.27e-02  1.90e-03     0.3
   20    -296.8191597681780536    -4.33e-04  4.20e-03  1.45e-02  2.23e-03     0.4
   21    -296.8197560341472467    -5.96e-04  4.05e-03  1.52e-02  2.13e-03     0.3
   22    -296.8189082640346328     8.48e-04  3.29e-03  1.31e-02  4.23e-03     0.3
   23    -296.8203010872727532    -1.39e-03  2.66e-03  1.20e-02  1.59e-03     0.3
   24    -296.8199955561123602     3.06e-04  2.56e-03  9.67e-03  2.83e-03     0.4
   25    -296.8204919246349505    -4.96e-04  2.48e-03  1.27e-02  1.62e-03     0.4
   26    -296.8202652932594106     2.27e-04  1.35e-03  8.00e-03  1.79e-03     0.3
   27    -296.8206633702007480    -3.98e-04  1.28e-03  4.80e-03  3.86e-04     0.3
   28    -296.8206716871238200    -8.32e-06  3.92e-04  2.50e-03  6.61e-04     0.5
   29    -296.8207109318103107    -3.92e-05  7.75e-04  4.19e-03  2.90e-04     0.3
   30    -296.8207147410107041    -3.81e-06  2.14e-04  2.14e-03  3.35e-04     0.3
   31    -296.8207257385479920    -1.10e-05  1.77e-04  1.01e-03  1.46e-04     0.3
   32    -296.8207258480920814    -1.10e-07  8.68e-05  5.67e-04  1.33e-04     0.3
   33    -296.8207276123882252    -1.76e-06  7.52e-05  3.73e-04  7.99e-05     0.3
   34    -296.8207277425535153    -1.30e-07  4.99e-05  2.72e-04  8.58e-05     0.3
               *** Restarting incremental Fock matrix formation ***
   35    -296.8207281982393511    -4.56e-07  5.61e-05  1.96e-04  4.41e-05     0.4
   36    -296.8207283417332860    -1.43e-07  3.77e-05  2.31e-04  2.65e-05     0.3
   37    -296.8207284205179235    -7.88e-08  1.03e-05  7.67e-05  1.03e-05     0.3
   38    -296.8207284406052509    -2.01e-08  8.19e-06  6.37e-05  6.73e-06     0.3
   39    -296.8207284490526376    -8.45e-09  8.07e-06  4.09e-05  5.42e-06     0.3
                 **** Energy Check signals convergence ****

               *****************************************************
               *                     SUCCESS                       *
               *           SCF CONVERGED AFTER  39 CYCLES          *
               *****************************************************

             **** ENERGY FILE WAS UPDATED (random4_nn1.70.en.tmp) ****

----------------
TOTAL SCF ENERGY
----------------

Total Energy       :       -296.82072845348983 Eh           -8076.90264 eV

Components:
Nuclear Repulsion  :        291.04589903546770 Eh            7919.76155 eV
Electronic Energy  :       -587.86662748895753 Eh          -15996.66419 eV
One Electron Energy:       -969.76854795037491 Eh          -26388.74377 eV
Two Electron Energy:        381.90192046141738 Eh           10392.07958 eV

Virial components:
Potential Energy   :       -587.88287186184652 Eh          -15997.10622 eV
Kinetic Energy     :        291.06214340835675 Eh            7920.20358 eV
Virial Ratio       :          2.01978472699232

DFT components:
N(Alpha)           :       30.000003669255 electrons
N(Beta)            :       30.000003669255 electrons
N(Total)           :       60.000007338509 electrons
E(X)               :      -45.108070256770 Eh       
E(C)               :       -1.902125750938 Eh       
E(XC)              :      -47.010196007708 Eh       

---------------
SCF CONVERGENCE
---------------

  Last Energy change         ...    8.4474e-09  Tolerance :   1.0000e-08
  Last MAX-Density change    ...    4.0897e-05  Tolerance :   1.0000e-07
  Last RMS-Density change    ...    8.0690e-06  Tolerance :   5.0000e-09
  Last DIIS Error            ...    9.2822e-04  Tolerance :   5.0000e-07
  Last Orbital Gradient      ...    5.4151e-06  Tolerance :   1.0000e-05
  Last Orbital Rotation      ...    1.3020e-04  Tolerance :   1.0000e-05


----------------
ORBITAL ENERGIES
----------------

  NO   OCC          E(Eh)            E(eV) 
   0   2.0000      -6.663616      -181.3262 
   1   2.0000      -6.657878      -181.1701 
   2   2.0000      -6.656071      -181.1209 
   3   2.0000      -6.652240      -181.0166 
   4   2.0000      -6.650737      -180.9758 
   5   2.0000      -6.650044      -180.9569 
   6   2.0000      -6.649648      -180.9461 
   7   2.0000      -6.648245      -180.9079 
   8   2.0000      -6.641294      -180.7188 
   9   2.0000      -6.639339      -180.6656 
  10   2.0000      -6.637660      -180.6199 
  11   2.0000      -6.626457      -180.3151 
  12   2.0000      -0.583898       -15.8887 
  13   2.0000      -0.528763       -14.3884 
  14   2.0000      -0.513970       -13.9858 
  15   2.0000      -0.449317       -12.2265 
  16   2.0000      -0.431923       -11.7532 
  17   2.0000      -0.383858       -10.4453 
  18   2.0000      -0.372939       -10.1482 
  19   2.0000      -0.368415       -10.0251 
  20   2.0000      -0.322462        -8.7746 
  21   2.0000      -0.304985        -8.2991 
  22   2.0000      -0.294845        -8.0231 
  23   2.0000      -0.268566        -7.3081 
  24   2.0000      -0.261567        -7.1176 
  25   2.0000      -0.254427        -6.9233 
  26   2.0000      -0.248131        -6.7520 
  27   2.0000      -0.232604        -6.3295 
  28   2.0000      -0.227482        -6.1901 
  29   2.0000      -0.203922        -5.5490 
  30   0.0000      -0.204700        -5.5702 
  31   0.0000      -0.194540        -5.2937 
  32   0.0000      -0.189763        -5.1637 
  33   0.0000      -0.175211        -4.7677 
  34   0.0000      -0.164058        -4.4643 
  35   0.0000      -0.156950        -4.2708 
  36   0.0000      -0.140422        -3.8211 
  37   0.0000      -0.122078        -3.3219 
  38   0.0000      -0.113107        -3.0778 
  39   0.0000      -0.102612        -2.7922 
  40   0.0000      -0.087687        -2.3861 
*Only the first 10 virtual orbitals were printed.

                    ********************************
                    * MULLIKEN POPULATION ANALYSIS *
                    ********************************

-----------------------
MULLIKEN ATOMIC CHARGES
-----------------------
   0 B :    0.069594
   1 B :    0.050638
   2 B :    0.087256
   3 B :   -0.685749
   4 B :    0.036777
   5 B :    0.054867
   6 B :    0.016540
   7 B :    0.117963
   8 B :    0.090994
   9 B :    0.039866
  10 B :    0.028255
  11 B :    0.092998
Sum of atomic charges:    0.0000000

--------------------------------
MULLIKEN REDUCED ORBITAL CHARGES
--------------------------------
  0 B s       :     3.471662  s :     3.471662
      pz      :     0.556598  p :     1.435289
      px      :     0.346196
      py      :     0.532494
      dz2     :     0.006136  d :     0.023455
      dxz     :     0.004462
      dyz     :     0.003261
      dx2y2   :     0.005106
      dxy     :     0.004490

  1 B s       :     3.844307  s :     3.844307
      pz      :     0.406417  p :     1.087812
      px      :     0.236966
      py      :     0.444430
      dz2     :     0.003022  d :     0.017244
      dxz     :     0.001982
      dyz     :     0.005357
      dx2y2   :     0.003285
      dxy     :     0.003598

  2 B s       :     3.542522  s :     3.542522
      pz      :     0.553384  p :     1.345612
      px      :     0.494543
      py      :     0.297684
      dz2     :     0.005676  d :     0.024610
      dxz     :     0.007844
      dyz     :     0.005423
      dx2y2   :     0.002996
      dxy     :     0.002671

  3 B s       :     3.378364  s :     3.378364
      pz      :     0.759344  p :     2.267077
      px      :     0.742526
      py      :     0.765206
      dz2     :     0.007101  d :     0.040308
      dxz     :     0.007680
      dyz     :     0.007357
      dx2y2   :     0.010299
      dxy     :     0.007870

  4 B s       :     3.666748  s :     3.666748
      pz      :     0.334463  p :     1.278303
      px      :     0.417599
      py      :     0.526241
      dz2     :     0.003927  d :     0.018172
      dxz     :     0.003450
      dyz     :     0.003075
      dx2y2   :     0.004545
      dxy     :     0.003176

  5 B s       :     3.272323  s :     3.272323
      pz      :     0.410932  p :     1.646246
      px      :     0.578689
      py      :     0.656625
      dz2     :     0.005685  d :     0.026563
      dxz     :     0.005180
      dyz     :     0.007224
      dx2y2   :     0.004231
      dxy     :     0.004244

  6 B s       :     3.628339  s :     3.628339
      pz      :     0.487264  p :     1.333294
      px      :     0.407998
      py      :     0.438031
      dz2     :     0.004377  d :     0.021827
      dxz     :     0.006021
      dyz     :     0.003607
      dx2y2   :     0.003415
      dxy     :     0.004407

  7 B s       :     3.514124  s :     3.514124
      pz      :     0.483268  p :     1.346081
      px      :     0.376769
      py      :     0.486044
      dz2     :     0.004610  d :     0.021832
      dxz     :     0.003484
      dyz     :     0.005290
      dx2y2   :     0.003882
      dxy     :     0.004567

  8 B s       :     3.312391  s :     3.312391
      pz      :     0.530021  p :     1.568116
      px      :     0.460581
      py      :     0.577515
      dz2     :     0.003096  d :     0.028499
      dxz     :     0.008581
      dyz     :     0.003107
      dx2y2   :     0.006831
      dxy     :     0.006884

  9 B s       :     3.630713  s :     3.630713
      pz      :     0.542386  p :     1.308267
      px      :     0.408595
      py      :     0.357286
      dz2     :     0.003327  d :     0.021153
      dxz     :     0.003353
      dyz     :     0.006233
      dx2y2   :     0.003751
      dxy     :     0.004489

 10 B s       :     3.651699  s :     3.651699
      pz      :     0.398658  p :     1.296653
      px      :     0.566619
      py      :     0.331376
      dz2     :     0.006300  d :     0.023393
      dxz     :     0.005812
      dyz     :     0.004767
      dx2y2   :     0.004207
      dxy     :     0.002308

 11 B s       :     3.703453  s :     3.703453
      pz      :     0.293653  p :     1.186426
      px      :     0.294602
      py      :     0.598171
      dz2     :     0.002341  d :     0.017123
      dxz     :     0.001503
      dyz     :     0.004989
      dx2y2   :     0.003677
      dxy     :     0.004611



                     *******************************
                     * LOEWDIN POPULATION ANALYSIS *
                     *******************************

----------------------
LOEWDIN ATOMIC CHARGES
----------------------
   0 B :   -0.054092
   1 B :    0.078836
   2 B :    0.040282
   3 B :   -0.127030
   4 B :   -0.018829
   5 B :   -0.098899
   6 B :    0.080147
   7 B :   -0.017408
   8 B :   -0.058527
   9 B :    0.039873
  10 B :    0.064688
  11 B :    0.070959

-------------------------------
LOEWDIN REDUCED ORBITAL CHARGES
-------------------------------
  0 B s       :     3.135503  s :     3.135503
      pz      :     0.723742  p :     1.860270
      px      :     0.443639
      py      :     0.692889
      dz2     :     0.019567  d :     0.058319
      dxz     :     0.010000
      dyz     :     0.006004
      dx2y2   :     0.013455
      dxy     :     0.009293

  1 B s       :     3.482463  s :     3.482463
      pz      :     0.480371  p :     1.407143
      px      :     0.287207
      py      :     0.639566
      dz2     :     0.006517  d :     0.031558
      dxz     :     0.003381
      dyz     :     0.007818
      dx2y2   :     0.008301
      dxy     :     0.005542

  2 B s       :     3.151638  s :     3.151638
      pz      :     0.760580  p :     1.754046
      px      :     0.662590
      py      :     0.330876
      dz2     :     0.015167  d :     0.054034
      dxz     :     0.018900
      dyz     :     0.008286
      dx2y2   :     0.006582
      dxy     :     0.005100

  3 B s       :     2.869950  s :     2.869950
      pz      :     0.692958  p :     2.179356
      px      :     0.736241
      py      :     0.750157
      dz2     :     0.012606  d :     0.077724
      dxz     :     0.017025
      dyz     :     0.011850
      dx2y2   :     0.020314
      dxy     :     0.015930

  4 B s       :     3.307595  s :     3.307595
      pz      :     0.454552  p :     1.672955
      px      :     0.515713
      py      :     0.702691
      dz2     :     0.008246  d :     0.038279
      dxz     :     0.007293
      dyz     :     0.005512
      dx2y2   :     0.012279
      dxy     :     0.004950

  5 B s       :     2.992294  s :     2.992294
      pz      :     0.559257  p :     2.038395
      px      :     0.673770
      py      :     0.805368
      dz2     :     0.012302  d :     0.068210
      dxz     :     0.013146
      dyz     :     0.019934
      dx2y2   :     0.013636
      dxy     :     0.009192

  6 B s       :     3.241894  s :     3.241894
      pz      :     0.609761  p :     1.634085
      px      :     0.534968
      py      :     0.489356
      dz2     :     0.009423  d :     0.043873
      dxz     :     0.012689
      dyz     :     0.007692
      dx2y2   :     0.007114
      dxy     :     0.006955

  7 B s       :     3.164982  s :     3.164982
      pz      :     0.629661  p :     1.802800
      px      :     0.497290
      py      :     0.675849
      dz2     :     0.011850  d :     0.049627
      dxz     :     0.006840
      dyz     :     0.011321
      dx2y2   :     0.009433
      dxy     :     0.010182

  8 B s       :     2.986845  s :     2.986845
      pz      :     0.629296  p :     2.002883
      px      :     0.697460
      py      :     0.676128
      dz2     :     0.006013  d :     0.068798
      dxz     :     0.022621
      dyz     :     0.007423
      dx2y2   :     0.019623
      dxy     :     0.013118

  9 B s       :     3.237861  s :     3.237861
      pz      :     0.686797  p :     1.675928
      px      :     0.450400
      py      :     0.538730
      dz2     :     0.006570  d :     0.046338
      dxz     :     0.007262
      dyz     :     0.016994
      dx2y2   :     0.008278
      dxy     :     0.007234

 10 B s       :     3.208623  s :     3.208623
      pz      :     0.533778  p :     1.674665
      px      :     0.752027
      py      :     0.388859
      dz2     :     0.011282  d :     0.052025
      dxz     :     0.014940
      dyz     :     0.010340
      dx2y2   :     0.010788
      dxy     :     0.004675

 11 B s       :     3.366624  s :     3.366624
      pz      :     0.341502  p :     1.525344
      px      :     0.393246
      py      :     0.790596
      dz2     :     0.005213  d :     0.037072
      dxz     :     0.003442
      dyz     :     0.008483
      dx2y2   :     0.009595
      dxy     :     0.010338



                      *****************************
                      * MAYER POPULATION ANALYSIS *
                      *****************************

  NA   - Mulliken gross atomic population
  ZA   - Total nuclear charge
  QA   - Mulliken gross atomic charge
  VA   - Mayer's total valence
  BVA  - Mayer's bonded valence
  FA   - Mayer's free valence

  ATOM       NA         ZA         QA         VA         BVA        FA
  0 B      4.9304     5.0000     0.0696     2.7336     2.7336     0.0000
  1 B      4.9494     5.0000     0.0506     1.9307     1.9307    -0.0000
  2 B      4.9127     5.0000     0.0873     2.6474     2.6474     0.0000
  3 B      5.6857     5.0000    -0.6857     3.3851     3.3851    -0.0000
  4 B      4.9632     5.0000     0.0368     2.4465     2.4465    -0.0000
  5 B      4.9451     5.0000     0.0549     2.9464     2.9464     0.0000
  6 B      4.9835     5.0000     0.0165     2.5740     2.5740     0.0000
  7 B      4.8820     5.0000     0.1180     2.7248     2.7248     0.0000
  8 B      4.9090     5.0000     0.0910     2.9059     2.9059     0.0000
  9 B      4.9601     5.0000     0.0399     2.5286     2.5286     0.0000
 10 B      4.9717     5.0000     0.0283     2.5429     2.5429     0.0000
 11 B      4.9070     5.0000     0.0930     2.1276     2.1276     0.0000

  Mayer bond orders larger than 0.100000
B(  0-B ,  1-B ) :   0.1238 B(  0-B ,  2-B ) :   0.8495 B(  0-B ,  3-B ) :   0.3373 
B(  0-B ,  6-B ) :   0.1234 B(  0-B , 10-B ) :   0.2495 B(  0-B , 11-B ) :   0.7532 
B(  1-B ,  2-B ) :   0.1357 B(  1-B ,  3-B ) :   0.2837 B(  1-B ,  4-B ) :   0.3029 
B(  1-B ,  8-B ) :   0.2597 B(  1-B , 10-B ) :   0.4497 B(  2-B ,  3-B ) :   0.4664 
B(  2-B ,  4-B ) :   0.5090 B(  2-B ,  7-B ) :   0.1025 B(  2-B , 11-B ) :   0.2334 
B(  3-B ,  4-B ) :   0.2040 B(  3-B ,  5-B ) :   0.2817 B(  3-B ,  6-B ) :   0.2262 
B(  3-B ,  7-B ) :   0.3418 B(  3-B ,  8-B ) :   0.4337 B(  3-B ,  9-B ) :   0.2268 
B(  3-B , 10-B ) :   0.2725 B(  3-B , 11-B ) :   0.3109 B(  4-B ,  5-B ) :   0.6536 
B(  4-B ,  6-B ) :   0.1856 B(  4-B ,  9-B ) :   0.1401 B(  4-B , 11-B ) :   0.1545 
B(  5-B ,  6-B ) :   0.6110 B(  5-B ,  9-B ) :   0.8193 B(  5-B , 10-B ) :   0.1590 
B(  6-B ,  7-B ) :   0.7433 B(  6-B ,  8-B ) :   0.1211 B(  6-B ,  9-B ) :   0.2576 
B(  6-B , 10-B ) :   0.1070 B(  6-B , 11-B ) :   0.1015 B(  7-B ,  8-B ) :   0.7512 
B(  7-B ,  9-B ) :   0.3552 B(  8-B , 10-B ) :   0.9073 B(  9-B , 11-B ) :   0.2807 


-------
TIMINGS
-------

Total SCF time: 0 days 0 hours 0 min 13 sec 

Total time                  ....      13.572 sec
Sum of individual times     ....      13.115 sec  ( 96.6%)

SCF preparation             ....       0.505 sec  (  3.7%)
Fock matrix formation       ....      11.138 sec  ( 82.1%)
  Startup                   ....       0.028 sec  (  0.3% of F)
  Split-RI-J                ....       3.767 sec  ( 33.8% of F)
  XC integration            ....       7.032 sec  ( 63.1% of F)
    XC Preparation          ....       0.000 sec  (  0.0% of XC)
    Basis function eval.    ....       1.719 sec  ( 24.4% of XC)
    Density eval.           ....       1.179 sec  ( 16.8% of XC)
    XC-Functional eval.     ....       0.214 sec  (  3.0% of XC)
    XC-Potential eval.      ....       1.447 sec  ( 20.6% of XC)
Diagonalization             ....       0.000 sec  (  0.0%)
Density matrix formation    ....       0.239 sec  (  1.8%)
Total Energy calculation    ....       0.099 sec  (  0.7%)
Population analysis         ....       0.027 sec  (  0.2%)
Orbital Transformation      ....       0.042 sec  (  0.3%)
Orbital Orthonormalization  ....       0.000 sec  (  0.0%)
DIIS solution               ....       0.396 sec  (  2.9%)
SOSCF solution              ....       0.668 sec  (  4.9%)
Finished LeanSCF after  13.6 sec

Maximum memory used throughout the entire LEANSCF-calculation: 10.0 MB


-------------------------------------------------------------------------------
                          DFT DISPERSION CORRECTION                            
                                                                               
                              DFTD3 V3.1  Rev 1                                
                          USING Becke-Johnson damping                          
-------------------------------------------------------------------------------
The BP86 functional is recognized
Active option DFTDOPT                   ...         4   

molecular C6(AA) [au] = 10087.841073 


            DFT-D V3
 parameters
 s6 scaling factor         :     1.0000 
 a1 scaling factor         :     0.3946 
 s8 scaling factor         :     3.2822 
 a2 scaling factor         :     4.8516 
 ad hoc parameters k1-k3   :    16.0000     1.3333    -4.0000 

 Edisp/kcal,au: -43.594172415561  -0.069471728424 
 E6   /kcal   : -12.589420786 
 E8   /kcal   : -31.004751630 
 % E8         :  71.121321754 

-------------------------   ----------------
Dispersion correction           -0.069471728
-------------------------   ----------------


-------------------------   --------------------
FINAL SINGLE POINT ENERGY      -296.890200181913
-------------------------   --------------------



           ************************************************************
           *        Program running with 8 parallel MPI-processes     *
           *              working on a common directory               *
           ************************************************************
------------------------------------------------------------------------------
                         ORCA SCF GRADIENT CALCULATION
------------------------------------------------------------------------------

Nuc. rep. gradient        (SHARK) ... done (  0.0 sec)
HCore & Overlap gradient  (SHARK) ... done (  0.0 sec)
Split-RIJ-J gradient      (SHARK) ... done (  0.3 sec)
XC gradient                       ... done (  0.9 sec)
Dispersion correction             ... done (  0.1 sec)

-------------------
DISPERSION GRADIENT
-------------------

   1   B   :    0.001020116   -0.001756368    0.002546436
   2   B   :    0.000042813   -0.003945375   -0.001865922
   3   B   :    0.004166804   -0.000811729   -0.004196547
   4   B   :   -0.000888212    0.004534188   -0.000510368
   5   B   :   -0.001462957   -0.002463598   -0.000397847
[...]
      pz      :     0.778278  p :     2.013460
      px      :     0.566788
      py      :     0.668394
      dz2     :     0.009470  d :     0.050487
      dxz     :     0.008823
      dyz     :     0.010822
      dx2y2   :     0.009275
      dxy     :     0.012096

  8 B s       :     3.466404  s :     3.466404
      pz      :     0.554438  p :     1.818115
      px      :     0.600816
      py      :     0.662861
      dz2     :     0.009242  d :     0.041932
      dxz     :     0.010956
      dyz     :     0.007450
      dx2y2   :     0.008634
      dxy     :     0.005650

  9 B s       :     3.176408  s :     3.176408
      pz      :     0.635138  p :     2.011496
      px      :     0.792286
      py      :     0.584072
      dz2     :     0.011899  d :     0.067313
      dxz     :     0.010346
      dyz     :     0.012667
      dx2y2   :     0.017103
      dxy     :     0.015298

 10 B s       :     3.082520  s :     3.082520
      pz      :     0.614269  p :     2.013996
      px      :     0.780825
      py      :     0.618903
      dz2     :     0.013043  d :     0.050478
      dxz     :     0.009064
      dyz     :     0.012392
      dx2y2   :     0.005423
      dxy     :     0.010556

 11 B s       :     2.914862  s :     2.914862
      pz      :     0.702126  p :     2.036212
      px      :     0.602747
      py      :     0.731340
      dz2     :     0.012331  d :     0.067028
      dxz     :     0.009368
      dyz     :     0.014002
      dx2y2   :     0.014437
      dxy     :     0.016890



                     *******************************
                     * LOEWDIN POPULATION ANALYSIS *
                     *******************************

----------------------
LOEWDIN ATOMIC CHARGES
----------------------
   0 B :    0.034362
   1 B :    0.034284
   2 B :    0.024366
   3 B :   -0.167767
   4 B :    0.001648
   5 B :    0.023834
   6 B :    0.034518
   7 B :   -0.100837
   8 B :    0.180566
   9 B :    0.034254
  10 B :   -0.100787
  11 B :    0.001560

-------------------------------
LOEWDIN REDUCED ORBITAL CHARGES
-------------------------------
  0 B s       :     2.690401  s :     2.690401
      pz      :     0.792010  p :     2.110494
      px      :     0.562274
      py      :     0.756210
      dz2     :     0.041707  d :     0.164743
      dxz     :     0.030229
      dyz     :     0.032930
      dx2y2   :     0.032163
      dxy     :     0.027714

  1 B s       :     2.690373  s :     2.690373
      pz      :     0.837202  p :     2.110600
      px      :     0.666723
      py      :     0.606675
      dz2     :     0.034627  d :     0.164744
      dxz     :     0.032314
      dyz     :     0.038992
      dx2y2   :     0.026151
      dxy     :     0.032660

  2 B s       :     2.632887  s :     2.632887
      pz      :     0.698770  p :     2.151544
      px      :     0.632849
      py      :     0.819926
      dz2     :     0.036454  d :     0.191203
      dxz     :     0.036981
      dyz     :     0.037928
      dx2y2   :     0.038867
      dxy     :     0.040973

  3 B s       :     2.477290  s :     2.477290
      pz      :     0.773527  p :     2.341698
      px      :     0.780486
      py      :     0.787684
      dz2     :     0.069176  d :     0.348780
      dxz     :     0.074109
      dyz     :     0.067202
      dx2y2   :     0.073826
      dxy     :     0.064467

  4 B s       :     2.673188  s :     2.673188
      pz      :     0.550478  p :     2.157146
      px      :     0.801956
      py      :     0.804712
      dz2     :     0.032231  d :     0.168017
      dxz     :     0.023294
      dyz     :     0.033563
      dx2y2   :     0.037726
      dxy     :     0.041204

  5 B s       :     2.632759  s :     2.632759
      pz      :     0.576711  p :     2.152098
      px      :     0.791913
      py      :     0.783474
      dz2     :     0.041613  d :     0.191310
      dxz     :     0.035644
      dyz     :     0.038726
      dx2y2   :     0.034205
      dxy     :     0.041121

  6 B s       :     2.690655  s :     2.690655
      pz      :     0.644986  p :     2.110143
      px      :     0.750677
      py      :     0.714479
      dz2     :     0.031752  d :     0.164684
      dxz     :     0.037366
      dyz     :     0.025239
      dx2y2   :     0.032711
      dxy     :     0.037617

  7 B s       :     2.705073  s :     2.705073
      pz      :     0.871444  p :     2.266808
      px      :     0.639371
      py      :     0.755993
      dz2     :     0.026412  d :     0.128957
      dxz     :     0.020667
      dyz     :     0.031060
      dx2y2   :     0.019881
      dxy     :     0.030937

  8 B s       :     2.833906  s :     2.833906
      pz      :     0.549001  p :     1.889407
      px      :     0.622597
      py      :     0.717809
      dz2     :     0.019004  d :     0.096122
      dxz     :     0.025764
      dyz     :     0.017198
      dx2y2   :     0.019539
      dxy     :     0.014616

  9 B s       :     2.690537  s :     2.690537
      pz      :     0.700347  p :     2.110492
      px      :     0.846321
      py      :     0.563824
      dz2     :     0.031408  d :     0.164716
      dxz     :     0.029644
      dyz     :     0.027672
      dx2y2   :     0.038711
      dxy     :     0.037281

 10 B s       :     2.704986  s :     2.704986
      pz      :     0.689501  p :     2.266861
      px      :     0.876522
      py      :     0.700838
      dz2     :     0.030789  d :     0.128940
      dxz     :     0.022535
      dyz     :     0.030279
      dx2y2   :     0.014731
      dxy     :     0.030606

 11 B s       :     2.673127  s :     2.673127
      pz      :     0.757268  p :     2.157307
      px      :     0.628011
      py      :     0.772027
      dz2     :     0.032065  d :     0.168006
      dxz     :     0.024472
      dyz     :     0.037001
      dx2y2   :     0.036867
      dxy     :     0.037601



                      *****************************
                      * MAYER POPULATION ANALYSIS *
                      *****************************

  NA   - Mulliken gross atomic population
  ZA   - Total nuclear charge
  QA   - Mulliken gross atomic charge
  VA   - Mayer's total valence
  BVA  - Mayer's bonded valence
  FA   - Mayer's free valence

  ATOM       NA         ZA         QA         VA         BVA        FA
  0 B      5.2548     5.0000    -0.2548     3.9406     3.9406    -0.0000
  1 B      5.2528     5.0000    -0.2528     3.9419     3.9419     0.0000
  2 B      5.1409     5.0000    -0.1409     3.9589     3.9589    -0.0000
  3 B      3.0470     5.0000     1.9530    -0.5834    -0.5834     0.0000
  4 B      5.0157     5.0000    -0.0157     4.0068     4.0068    -0.0000
  5 B      5.1415     5.0000    -0.1415     3.9604     3.9604    -0.0000
  6 B      5.2539     5.0000    -0.2539     3.9403     3.9403    -0.0000
  7 B      5.1466     5.0000    -0.1466     3.7320     3.7320    -0.0000
  8 B      5.3265     5.0000    -0.3265     3.3556     3.3556    -0.0000
  9 B      5.2552     5.0000    -0.2552     3.9405     3.9405    -0.0000
 10 B      5.1470     5.0000    -0.1470     3.7327     3.7327    -0.0000
 11 B      5.0181     5.0000    -0.0181     4.0081     4.0081    -0.0000

  Mayer bond orders larger than 0.100000
B(  0-B ,  1-B ) :   0.5165 B(  0-B ,  2-B ) :   0.7484 B(  0-B ,  4-B ) :   0.1284 
B(  0-B ,  5-B ) :   0.1216 B(  0-B ,  8-B ) :   0.1392 B(  0-B , 10-B ) :   1.1506 
B(  0-B , 11-B ) :   1.0224 B(  1-B ,  2-B ) :   0.7488 B(  1-B ,  4-B ) :   1.0218 
B(  1-B ,  5-B ) :   0.1215 B(  1-B ,  8-B ) :   0.1394 B(  1-B , 10-B ) :   1.1496 
B(  1-B , 11-B ) :   0.1285 B(  2-B ,  4-B ) :   0.5919 B(  2-B ,  5-B ) :   0.9193 
B(  2-B ,  6-B ) :   0.1217 B(  2-B ,  7-B ) :   0.1148 B(  2-B ,  9-B ) :   0.1215 
B(  2-B , 11-B ) :   0.5928 B(  3-B ,  7-B ) :  -0.1838 B(  3-B , 10-B ) :  -0.1835 
B(  4-B ,  5-B ) :   0.5924 B(  4-B ,  6-B ) :   1.0211 B(  4-B ,  9-B ) :   0.1285 
B(  4-B , 11-B ) :   0.3193 B(  5-B ,  6-B ) :   0.7495 B(  5-B ,  9-B ) :   0.7497 
B(  5-B , 10-B ) :   0.1148 B(  5-B , 11-B ) :   0.5928 B(  6-B ,  7-B ) :   1.1498 
B(  6-B ,  8-B ) :   0.1398 B(  6-B ,  9-B ) :   0.5150 B(  6-B , 11-B ) :   0.1285 
B(  7-B ,  8-B ) :   1.2884 B(  7-B ,  9-B ) :   1.1514 B(  8-B ,  9-B ) :   0.1391 
B(  8-B , 10-B ) :   1.2891 B(  9-B , 11-B ) :   1.0230 

-------
TIMINGS
-------

Total SCF time: 0 days 0 hours 0 min 4 sec 

Total time                  ....       4.579 sec
Sum of individual times     ....       4.213 sec  ( 92.0%)

SCF preparation             ....       1.409 sec  ( 30.8%)
Fock matrix formation       ....       2.364 sec  ( 51.6%)
  Startup                   ....       0.164 sec  (  6.9% of F)
  Split-RI-J                ....       0.828 sec  ( 35.0% of F)
  XC integration            ....       1.549 sec  ( 65.5% of F)
    XC Preparation          ....       0.000 sec  (  0.0% of XC)
    Basis function eval.    ....       0.375 sec  ( 24.2% of XC)
    Density eval.           ....       0.303 sec  ( 19.5% of XC)
    XC-Functional eval.     ....       0.044 sec  (  2.8% of XC)
    XC-Potential eval.      ....       0.364 sec  ( 23.5% of XC)
Diagonalization             ....       0.000 sec  (  0.0%)
Density matrix formation    ....       0.050 sec  (  1.1%)
Total Energy calculation    ....       0.026 sec  (  0.6%)
Population analysis         ....       0.162 sec  (  3.5%)
Orbital Transformation      ....       0.015 sec  (  0.3%)
Orbital Orthonormalization  ....       0.000 sec  (  0.0%)
DIIS solution               ....       0.029 sec  (  0.6%)
SOSCF solution              ....       0.158 sec  (  3.5%)
Finished LeanSCF after   4.7 sec

Maximum memory used throughout the entire LEANSCF-calculation: 12.0 MB


-------------------------------------------------------------------------------
                          DFT DISPERSION CORRECTION                            
                                                                               
                              DFTD3 V3.1  Rev 1                                
                          USING Becke-Johnson damping                          
-------------------------------------------------------------------------------
The BP86 functional is recognized
Active option DFTDOPT                   ...         4   

molecular C6(AA) [au] = 4093.105888 


            DFT-D V3
 parameters
 s6 scaling factor         :     1.0000 
 a1 scaling factor         :     0.3946 
 s8 scaling factor         :     3.2822 
 a2 scaling factor         :     4.8516 
 ad hoc parameters k1-k3   :    16.0000     1.3333    -4.0000 

 Edisp/kcal,au: -23.515524731199  -0.037474370021 
 E6   /kcal   :  -6.694138569 
 E8   /kcal   : -16.821386163 
 % E8         :  71.533109956 

-------------------------   ----------------
Dispersion correction           -0.037474370
-------------------------   ----------------


-------------------------   --------------------
FINAL SINGLE POINT ENERGY      -297.655365100896
-------------------------   --------------------

                                *** OPTIMIZATION RUN DONE ***



           ************************************************************
           *        Program running with 8 parallel MPI-processes     *
           *              working on a common directory               *
           ************************************************************

------------------------------------------------------------------------------
                              ORCA PROPERTY CALCULATIONS
------------------------------------------------------------------------------

GBWName                                 ... random4_nn1.70.gbw
Number of atoms                         ...     12
Number of basis functions               ...    168
Max core memory                         ...   2500 MB

Electric properties:
Dipole moment                           ... YES
Quadrupole moment                       ...  NO
Static polarizability (Dipole/Dipole)   ...  NO
Static polarizability (Dipole/Quad.)    ...  NO
Static polarizability (Quad./Quad.)     ...  NO
Static polarizability (Velocity)        ...  NO
Static hyperpolarizability              ...  NO

Atomic electric properties:
Dipole moment                           ...  NO
Quadrupole moment                       ...  NO
Static polarizability                   ...  NO

Choice of electric origin               ... Center of mass
Position of electric origin             ...    -0.000000     0.000000     0.000000

General magnetic properties:
Magnetizability                         ...  NO

EPR properties:
g-Tensor (aka g-matrix)                 ...  NO
Zero-Field splitting spin-orbit         ...  NO
Zero-field splitting spin-spin          ...  NO
Hyperfine couplings                     ...  NO (   0 nuclei)
Quadrupole couplings                    ...  NO (   0 nuclei)
Contact density                         ...  NO (   0 nuclei)

NMR properties:
Chemical shifts                         ...  NO (   0 nuclei)
Spin-rotation constants                 ...  NO (   0 nuclei)
Spin-spin couplings                     ...  NO (   0 nuclei,    0 pairs)

Choice of magnetic origin               ... GIAO
Position of magnetic origin             ...     0.000000     0.000000     0.000000

Properties with geometric perturbations:
SCF Hessian                             ...  NO
IR spectrum                             ...  NO
VCD spectrum                            ...  NO
X-ray spectroscopy properties:
SCF XES/XAS/RIXS spectra                ...  NO

SCF SOC stabilization energy            ...  NO
Diagonal Born-Oppenheimer correction    ...  NO

-------------
DIPOLE MOMENT
-------------

Method             : SCF
Type of density    : Electron Density
Multiplicity       :   1
Irrep              :   0
Energy             :  -297.6178907308751604 Eh
Basis              : AO
                                X                 Y                 Z
Electronic contribution:     -0.594885368      -0.098532183       0.802409178
Nuclear contribution   :     -0.000000000       0.000000000       0.000000000
                        -----------------------------------------
Total Dipole Moment    :     -0.594885368      -0.098532183       0.802409178
                        -----------------------------------------
Magnitude (a.u.)       :      1.003721914
Magnitude (Debye)      :      2.551258354



--------------------
Rotational spectrum 
--------------------
 
Rotational constants in cm-1:             0.074277             0.069977             0.058185 
Rotational constants in MHz :          2226.762179          2097.861876          1744.350440 

Dipole components along the rotational axes: 
x,y,z [a.u.] :    -0.003955    -1.003712     0.002201 
x,y,z [Debye]:    -0.010053    -2.551232     0.005594 

 

Dipole moment calculation done in   0.0 sec 

Maximum memory used throughout the entire PROP-calculation: 9.7 MB

--------------------------------
SUGGESTED CITATIONS FOR THIS RUN
--------------------------------

Below you find a list of papers that are relevant to this ORCA run
We neither can nor want to force you to cite these papers, but we appreciate if you do
You receive ORCA, which is the product of decades of hard work by many enthusiastic individuals, for free
The only thing we kindly ask in return is that you cite our papers,
We deeply appreciate it, if you show your appreciation for ORCA by not just citing the generic ORCA reference.

Please note that relegating all ORCA citations to the supporting information does *not* help us.
SI sections are not indexed - citations you put there will not count into any citation statistics
But we need these citations in order to attract the funding resources that allow us to do what we are doing

Therefore, if you are a happy ORCA user, please consider citing a few of the papers listed below in the main body of your paper

In addition to the list printed below, the program has created the file random4_nn1.70.bibtex that contains the list in bibtex format
You can import this file easily into all common literature databanks and citation aid programs

It goes without saying that in many instances, there are alternative algorithms to achieve similar
results as the ones you have gotten from ORCA. It is, of course, also the case that in some instances
ORCA just re-implements algorithms worked out by others. We are fully aware of that and we are also
fully appreciative of our colleagues work. Hence this citation list should not be read as indicating
that the listed papers, which are focused on our own work, are the only ones worth citing. It simply
meant to make it easier for users to cite ORCA specific papers. It is not a substitute for doing your
own literature research and citing the relevant literature in a scientifically appropriate manner.

List of essential papers. We consider these as the minimum necessary citations

  1. Neese, F.
     Software update: the ORCA program system, version 6.0
     WIRES Comput. Molec. Sci. 2025 15(1), e70019
     doi.org/10.1002/wcms.70019

List of papers to cite with high priority. The work reported in these papers was absolutely
necessary for this run to complete.
Our perspective: the developers of density functionals and basis sets usually get cited in chemistry papers
Good! But without the algorithms to do something with them, the functionals or basis sets would not do anything.
Hence, in our opinion, the algorithm design and method developments papers are equally worthy of getting cited

  1. Neese, F.
     An improvement of the resolution of the identity approximation for the formation of the Coulomb matrix
     J. Comp. Chem. 2003 24(14), 1740-1747
     doi.org/10.1002/jcc.10318
  2. Grimme, S.; Antony, J.; Ehrlich, S.; Krieg, H.
     A consistent and accurate ab initio parametrization of density functional dispersion correction (DFT-D) for the 94 elements H-Pu
     J. Chem. Phys. 2010 132 , 154104
     doi.org/10.1063/1.3382344
  3. Grimme, S.; Ehrlich, S.; Goerigk, L.
     Effect of the damping function in dispersion corrected density functional theory
     J. Comput. Chem. 2011 32(7), 1456-1465
     doi.org/10.1002/jcc.21759
  4. Neese, F.
     The SHARK Integral Generation and Digestion System
     J. Comp. Chem. 2022 44(3), 381
     doi.org/10.1002/jcc.26942

List of suggested additional citations. These are papers that are important in the 'surrounding' of 
of this run, or papers that preceded the highly important papers. If you like your results we are grateful for a citation.

  1. Neese, F.
     The ORCA program system
     WIRES Comput. Molec. Sci. 2012 2(1), 73-78
     doi.org/10.1002/wcms.81
  2. Neese, F.
     Software update: the ORCA program system, version 4.0
     WIRES Comput. Molec. Sci. 2018 8(1), 1-6
     doi.org/10.1002/wcms.1327
  3. Neese, F.; Wennmohs, F.; Becker, U.; Riplinger, C.
     The ORCA quantum chemistry program package
     J. Chem. Phys. 2020 152(22), 224108
     doi.org/10.1063/5.0004608
  4. Neese, F.
     Software update: The ORCA program system—Version 5.0
     WIRES Comput. Molec. Sci. 2022 12(1), e1606
     doi.org/10.1002/wcms.1606

List of optional additional citations

  1. Neese, F.
     Approximate second-order SCF convergence for spin unrestricted wavefunctions
     Chem. Phys. Lett. 2000 325(1-3), 93-98
     doi.org/10.1016/s0009-2614(00)00662-x

Timings for individual modules:

Sum of individual times          ...      554.640 sec (=   9.244 min)
Startup calculation              ...       71.629 sec (=   1.194 min)  12.9 %
SCF iterations                   ...      377.812 sec (=   6.297 min)  68.1 %
Property calculations            ...        0.717 sec (=   0.012 min)   0.1 %
SCF Gradient evaluation          ...      102.929 sec (=   1.715 min)  18.6 %
Geometry relaxation              ...        1.552 sec (=   0.026 min)   0.3 %
                             ****ORCA TERMINATED NORMALLY****
TOTAL RUN TIME: 0 days 0 hours 9 minutes 47 seconds 863 msec
