
                                 *****************
                                 * O   R   C   A *
                                 *****************

                                            #,                                       
                                            ###                                      
                                            ####                                     
                                            #####                                    
                                            ######                                   
                                           ########,                                 
                                     ,,################,,,,,                         
                               ,,#################################,,                 
                          ,,##########################################,,             
                       ,#########################################, ''#####,          
                    ,#############################################,,   '####,        
                  ,##################################################,,,,####,       
                ,###########''''           ''''###############################       
              ,#####''   ,,,,##########,,,,          '''####'''          '####       
            ,##' ,,,,###########################,,,                        '##       
           ' ,,###''''                  '''############,,,                           
         ,,##''                                '''############,,,,        ,,,,,,###''
      ,#''                                            '''#######################'''  
     '                                                          ''''####''''         
             ,#######,   #######,   ,#######,      ##                                
            ,#'     '#,  ##    ##  ,#'     '#,    #''#        ,####,    ,#,          
            ##       ##  ##   ,#'  ##            #'  '#       #'       ,# #          
            ##       ##  #######   ##           ,######,      #####,      #          
            '#,     ,#'  ##    ##  '#,     ,#' ,#      #,     #,   #      #          
             '#######'   ##     ##  '#######'  #'      '#     '####' #    #          



                #########################################################
                #                        -***-                          #
                #          Department of theory and spectroscopy        #
                #                                                       #
                #                      Frank Neese                      #
                #                                                       #
                #     Directorship, Architecture, Infrastructure        #
                #                    SHARK, DRIVERS                     #
                #        Core code/Algorithms in most modules           #
                #                                                       #
                #        Max Planck Institute fuer Kohlenforschung      #
                #                Kaiser Wilhelm Platz 1                 #
                #                 D-45470 Muelheim/Ruhr                 #
                #                      Germany                          #
                #                                                       #
                #                  All rights reserved                  #
                #                        -***-                          #
                #########################################################


                         Program Version 6.1.1  -  RELEASE   -
                                (GIT: $487d211c$)
                          ($2025-11-21 10:33:24 +0100$)
                                                                         
                                  - NO-DMRG VERSION -                    
                                                                         


 With contributions from (in alphabetic order):
[Max-Planck-Institut fuer Kohlenforschung]                               
  Daniel Aravena         : Magnetic Suceptibility                        
  Michael Atanasov       : Ab Initio Ligand Field Theory (pilot matlab implementation)
  Alexander A. Auer      : GIAO ZORA, VPT2 properties, NMR spectrum      
  Ute Becker             : All parallelization in ORCA, NUMFREQ, NUMCALC 
  Giovanni Bistoni       : ED, misc. LED, open-shell LED, HFLD           
  Dmytro Bykov           : pre 5.0 version of the SCF Hessian            
  Marcos Casanova-Páez   : Triplet and SCS-CIS(D). UHF-(DLPNO)-IP/EA/STEOM-CCSD. UHF-CVS-IP/STEOM-CCSD   
  Vijay G. Chilkuri      : MRCI spin determinant printing, contributions to CSF-ICE 
  Pauline Colinet        : FMM embedding                                 
  Dipayan Datta          : RHF DLPNO-CCSD density                        
  Achintya Kumar Dutta   : EOM-CC, STEOM-CC                              
  Nicolas Foglia         : Exact transition moments, OPA infrastructure, MCD improvements    
  Dmitry Ganyushin       : Spin-Orbit,Spin-Spin,Magnetic field MRCI      
  Miquel Garcia-Rates    : C-PCM and meta-GGA Hessian, CCSD/C-PCM, Gaussian charge scheme 
  Tiago L. C. Gouveia    : GS-ROHF, GS-ROCIS                             
  Yang Guo               : DLPNO-NEVPT2, F12-NEVPT2, CIM, IAO-localization        
  Andreas Hansen         : Spin unrestricted coupled pair/coupled cluster methods 
  Ingolf Harden          : AUTO-CI MPn and infrastructure                
  Benjamin Helmich-Paris : MC-RPA, TRAH-(SCF,CASSCF), AVAS, COSX integrals, SCF dyn. polar., MC-PDFT, srDFT 
  Lee Huntington         : MR-EOM, pCC                                   
  Robert Izsak           : Overlap fitted RIJCOSX, COSX-SCS-MP3, EOM     
  Riya Kayal             : Wick's Theorem for AUTO-CI, AUTO-CI UHF-CCSDT 
  Emily Kempfer          : AUTO-CI RHF CISDT and CCSDT, approximate NEVPT4
  Christian Kollmar      : KDIIS, OOCD, Brueckner-CCSD(T), CCSD density, CASPT2, CASPT2-K, improved NEVPT2 
  Axel Koslowski         : Symmetry handling                             
  Simone Kossmann        : meta-GGA functionals, TD-DFT gradient, OOMP2, (MP2 Hessian; deprecated post 5.0) 
  Lucas Lang             : DCDCAS, Hyperfine gauge corrections, ICE-SOC+SSC
  Marvin Lechner         : AUTO-CI (C++ implementation), FIC-MRCC        
  Spencer Leger          : CASSCF response                               
  Dagmar Lenk            : GEPOL surface, SMD, ORCA-2-JSON               
  Dimitrios Liakos       : Extrapolation schemes; Compound Job, Property file
  Dimitrios Manganas     : Further ROCIS development; embedding schemes. LFT, Crystal Embedding 
  Dimitrios Pantazis     : SARC Basis sets                               
  Anastasios Papadopoulos: AUTO-CI, single reference methods and gradients 
  Taras Petrenko         : pre 6.0 DFT Hessian and TD-DFT gradient,  ECA, NRVS 
  Petra Pikulova         : Analytic Raman intensities                    
  Peter Pinski           : DLPNO-MP2, DLPNO-MP2 Gradient                 
  Shashank Vittal Rao    : ES-AILFT, MagRelax                            
  Christoph Reimann      : Effective Core Potentials                     
  Marius Retegan         : Local ZFS, SOC                                
  Christoph Riplinger    : Optimizer, TS searches, QM/MM, DLPNO-CCSD(T), (RO)-DLPNO pert. Triples 
  Michael Roemelt        : Original ROCIS implementation, recursive CI coupling coefficients
  Masaaki Saitow         : Open-shell DLPNO-CCSD energy and density      
  Barbara Sandhoefer     : DKH picture change effects                    
  Yorick L. A. Schmerwitz: GMF and freeze-and-release deltaSCF, NEB S-IDPP initial path                    
  Kantharuban Sivalingam : CASSCF convergence/infrastructure, NEVPT2, NEVPT3, NEVPT4(SD), FIC-MRCI and CEPA variants
  Bernardo de Souza      : ESD, SOC TD-DFT                               
  Georgi L. Stoychev     : AutoAux, RI-MP2 NMR, DLPNO-MP2 response, X2C  
  Van Anh Tran           : RI-MP2 g-tensors                              
  Willem Van den Heuvel  : Paramagnetic NMR                              
  Zikuan Wang            : NOTCH, Electric field optimization            
  Frank Wennmohs         : Technical directorship and infrastructure     
  Hang Xu                : AUTO-CI-Response properties                   
                                                                         
[FACCTs GmbH]                                                            
  Markus Bursch, Nicolas Foglia, Miquel Garcia-Rates, Ingolf Harden, Hagen Neugebauer, Anastasios Papadopoulos, 
  Christoph Riplinger, Bernardo de Souza, Georgi L. Stoychev                                                    
                                                                 
  APM, various basis sets, CI-OPT, improved COSX, DLPNO-Multilevel,           
  DOCKER, DRACO, updates on ESD, Fragmentator, GOAT, IRC, LR-CPCM, L-BFGS, MBIS, meta-GGA TD-DFT gradient, ML-optimized integration grids, 
  MM, NACMEs, nearIR, NEB, NEB-TS, NL-DFT gradient (VV10), 2- and 3-layer-ONIOM, interface openCOSMO-RS, QMMM,   
  Crystal-QMMM, RESP, rigid body optimization, SF, symmetry and pop. for TD-DFT, various functionals, SOLVATOR                                   
                                                                         
[Other institutions]                                                     
  V. Asgeirsson          : NEB                                           
  Christoph Bannwarth    : sTDA-DFT, sTD-DFT, PBEh-3c, B97-3c, D3        
  Giovanni Bistoni       : ETS/NOCV, ADLD/ADEX, COVALED                  
  Martin Brehm           : Molecular dynamics                            
  Ronald Cardenas        : ETS/NOCV                                      
  Martina Colucci        : COVALED                                       
  Sebastian Ehlert       : rSCAN, r2SCAN, r2SCAN-3c, D4, dhf basis sets  
  Marvin Friede          : D4 for Fr, Ra, Ac-Lr                          
  Lars Goerigk           : TD-DFT with DH, B97 family of functionals     
  Stefan Grimme          : VdW corrections, initial TS optimization, DFT functionals, gCP, sTDA/sTD-DF 
  Waldemar Hujo          : DFT-NL                                        
  H. Jonsson             : NEB                                           
  Holger Kruse           : gCP                                           
  Marcel Mueller         : wB97X-3c, vDZP basis set                      
  Hagen Neugebauer       : wr2SCAN, Native XTB                           
  Gianluca Regni         : ADLD/ADEX                                     
  Tobias Risthaus        : pre 6.0 range-separated hybrid DFT and stability analysis
  Lukas Wittmann         : regularized MP2, r2SCAN double-hybrids, wr2SCAN        
                                                                         
We gratefully acknowledge several colleagues who have allowed us to      
interface, adapt or use parts of their codes:                            
  Ed Valeev, F. Pavosevic, A. Kumar             : LibInt (2-el integral package), F12 methods 
  Garnet Chan, S. Sharma, J. Yang, R. Olivares  : DMRG                   
  Ulf Ekstrom                                   : XCFun DFT Library      
  Mihaly Kallay                                 : mrcc  (arbitrary order and MRCC methods)
  Frank Weinhold                                : gennbo (NPA and NBO analysis)           
  Simon Mueller                                 : openCOSMO-RS                            
  Christopher J. Cramer and Donald G. Truhlar   : smd solvation model                     
  S Lehtola, MJT Oliveira, MAL Marques          : LibXC Library                           
  Liviu Ungur et al                             : ANISO software                          


 Your calculation uses the libint2 library for the computation of 2-el integrals
 For citations please refer to: http://libint.valeyev.net

 Your ORCA version has been built with support for libXC version: 7.0.0
 For citations please refer to: https://libxc.gitlab.io

 This ORCA versions uses:
   CBLAS   interface :  Fast vector & matrix operations
   LAPACKE interface :  Fast linear algebra routines
   SCALAPACK package :  Parallel linear algebra routines
   Shared memory     :  Shared parallel matrices
   BLAS/LAPACK       :  OpenBLAS 0.3.29  USE64BITINT DYNAMIC_ARCH NO_AFFINITY Zen SINGLE_THREADED
        Core in use  :  Zen
   Copyright (c) 2011-2014, The OpenBLAS Project


  ***********************************
  * Starting time: Thu Apr 23 16:21:22 2026
  * Host name:     vmi3233575
  * Process ID:    1335113
  * Working dir.:  /root/b12_scan/jobs/hex_prism_nn2.00
  ***********************************

NOTE: MaxCore=2500 MB was set to SCF,MP2,MDCI,CIPSI,MRCI,RASCI and CIS
      => If you want to overwrite this, your respective input block should be placed after the MaxCore statement
Your calculation utilizes the atom-pairwise dispersion correction
with the Becke-Johnson damping scheme (D3BJ)


================================================================================

----- Orbital basis set information -----
Your calculation utilizes the basis: def2-SVP
   F. Weigend and R. Ahlrichs, Phys. Chem. Chem. Phys. 7, 3297 (2005).

----- AuxJ basis set information -----
Your calculation utilizes the auxiliary basis: def2/J
   H-Rn: F. Weigend, Phys. Chem. Chem. Phys. 8, 1057 (2006).
   Fr-Lr: K. Eichkorn, F. Weigend, O. Treutler, R. Ahlrichs; Theor. Chem. Acc. 97, 119 (1997).

================================================================================
                                        WARNINGS
                       Please study these warnings very carefully!
================================================================================


WARNING: Geometry Optimization
  ===> : Switching off AutoStart
         For restart on a previous wavefunction, please use MOREAD

================================================================================
                                       INPUT FILE
================================================================================
NAME = hex_prism_nn2.00.inp
|  1> ! BP86 def2-SVP def2/J RI Opt TightSCF D3BJ
|  2> ! SlowConv
|  3> 
|  4> %pal nprocs 8 end
|  5> %maxcore 2500
|  6> 
|  7> %geom
|  8>   MaxIter 300
|  9> end
| 10> 
| 11> * xyz 0 1
| 12> B      2.50000000     -0.00000000      1.00000000
| 13> B      2.50000000     -0.00000000     -1.00000000
| 14> B      1.25000000      2.16506351      1.00000000
| 15> B      1.25000000      2.16506351     -1.00000000
| 16> B     -1.25000000      2.16506351      1.00000000
| 17> B     -1.25000000      2.16506351     -1.00000000
| 18> B     -2.50000000      0.00000000      1.00000000
| 19> B     -2.50000000      0.00000000     -1.00000000
| 20> B     -1.25000000     -2.16506351      1.00000000
| 21> B     -1.25000000     -2.16506351     -1.00000000
| 22> B      1.25000000     -2.16506351      1.00000000
| 23> B      1.25000000     -2.16506351     -1.00000000
| 24> *
| 25> 
| 26>                          ****END OF INPUT****
================================================================================

                       *****************************
                       * Geometry Optimization Run *
                       *****************************

Geometry optimization settings:
Update method            Update   .... BFGS
Choice of coordinates    CoordSys .... (2022) Redundant Internals
Initial Hessian          InHess   .... Almloef's Model
Max. no of cycles        MaxIter  .... 300

Convergence Tolerances:
Energy Change            TolE     ....  5.0000e-06 Eh
Max. Gradient            TolMAXG  ....  3.0000e-04 Eh/bohr
RMS Gradient             TolRMSG  ....  1.0000e-04 Eh/bohr
Max. Displacement        TolMAXD  ....  4.0000e-03 bohr
RMS Displacement         TolRMSD  ....  2.0000e-03 bohr
Strict Convergence                .... False

------------------------------------------------------------------------------
                        ORCA OPTIMIZATION COORDINATE SETUP
------------------------------------------------------------------------------

The optimization will be done in redundant internal coordinates (2022)
Making redundant internal coordinates   ...  (2022 redundants) done
Evaluating the initial hessian          ...  (Almloef) done
Evaluating the coordinates              ...  done
Calculating the B-matrix                .... done
Calculating the G-matrix                .... done
The number of degrees of freedom        ....  390

    -----------------------------------------------------------------
                    Redundant Internal Coordinates


    -----------------------------------------------------------------
         Definition                    Initial Value    Approx d2E/dq
    -----------------------------------------------------------------
      1. B(B   1,B   0)                  2.0000         0.089157   
      2. B(B   2,B   0)                  2.5000         0.014205   
      3. B(B   2,B   1)                  3.2016         0.010000   
      4. B(B   3,B   2)                  2.0000         0.089157   
      5. B(B   3,B   0)                  3.2016         0.010000   
      6. B(B   3,B   1)                  2.5000         0.014205   
      7. B(B   4,B   2)                  2.5000         0.014205   
      8. B(B   4,B   3)                  3.2016         0.010000   
      9. B(B   5,B   3)                  2.5000         0.014205   
     10. B(B   5,B   4)                  2.0000         0.089157   
     11. B(B   5,B   2)                  3.2016         0.010000   
     12. B(B   6,B   4)                  2.5000         0.014205   
     13. B(B   6,B   5)                  3.2016         0.010000   
     14. B(B   7,B   4)                  3.2016         0.010000   
     15. B(B   7,B   5)                  2.5000         0.014205   
     16. B(B   7,B   6)                  2.0000         0.089157   
     17. B(B   8,B   7)                  3.2016         0.010000   
     18. B(B   8,B   6)                  2.5000         0.014205   
     19. B(B   9,B   6)                  3.2016         0.010000   
     20. B(B   9,B   7)                  2.5000         0.014205   
     21. B(B   9,B   8)                  2.0000         0.089157   
     22. B(B  10,B   0)                  2.5000         0.014205   
     23. B(B  10,B   9)                  3.2016         0.010000   
     24. B(B  10,B   8)                  2.5000         0.014205   
     25. B(B  10,B   1)                  3.2016         0.010000   
     26. B(B  11,B  10)                  2.0000         0.089157   
     27. B(B  11,B   8)                  3.2016         0.010000   
     28. B(B  11,B   9)                  2.5000         0.014205   
     29. B(B  11,B   0)                  3.2016         0.010000   
     30. B(B  11,B   1)                  2.5000         0.014205   
     31. A(B   2,B   0,B  11)          112.9815         0.125364   
     32. A(B   2,B   0,B   3)           38.6598         0.125364   
     33. A(B   1,B   0,B   3)           51.3402         0.144110   
     34. A(B   3,B   0,B  11)           85.1029         0.109292   
     35. A(B   1,B   0,B  10)           90.0000         0.187756   
     36. A(B   2,B   0,B  10)          120.0000         0.154165   
     37. A(B  10,B   0,B  11)           38.6598         0.125364   
     38. A(B   1,B   0,B   2)           90.0000         0.187756   
     39. A(B   3,B   0,B  10)          112.9815         0.125364   
     40. A(B   1,B   0,B  11)           51.3402         0.144110   
     41. A(B   3,B   1,B  10)          112.9815         0.125364   
     42. A(B   0,B   1,B  10)           51.3402         0.144110   
     43. A(B   2,B   1,B  10)           85.1029         0.109292   
     44. A(B   2,B   1,B  11)          112.9815         0.125364   
     45. A(B   0,B   1,B   3)           90.0000         0.187756   
     46. A(B   3,B   1,B  11)          120.0000         0.154165   
     47. A(B  10,B   1,B  11)           38.6598         0.125364   
     48. A(B   0,B   1,B  11)           90.0000         0.187756   
     49. A(B   0,B   1,B   2)           51.3402         0.144110   
     50. A(B   2,B   1,B   3)           38.6598         0.125364   
     51. A(B   4,B   2,B   5)           38.6598         0.125364   
     52. A(B   1,B   2,B   3)           51.3402         0.144110   
     53. A(B   3,B   2,B   4)           90.0000         0.187756   
     54. A(B   0,B   2,B   5)          112.9815         0.125364   
     55. A(B   1,B   2,B   4)          112.9815         0.125364   
     56. A(B   0,B   2,B   4)          120.0000         0.154165   
     57. A(B   0,B   2,B   1)           38.6598         0.125364   
     58. A(B   1,B   2,B   5)           85.1029         0.109292   
     59. A(B   0,B   2,B   3)           90.0000         0.187756   
     60. A(B   3,B   2,B   5)           51.3402         0.144110   
     61. A(B   1,B   3,B   4)          112.9815         0.125364   
     62. A(B   4,B   3,B   5)           38.6598         0.125364   
     63. A(B   0,B   3,B   4)           85.1029         0.109292   
     64. A(B   1,B   3,B   5)          120.0000         0.154165   
     65. A(B   0,B   3,B   2)           51.3402         0.144110   
     66. A(B   0,B   3,B   5)          112.9815         0.125364   
     67. A(B   0,B   3,B   1)           38.6598         0.125364   
     68. A(B   2,B   3,B   4)           51.3402         0.144110   
     69. A(B   2,B   3,B   5)           90.0000         0.187756   
     70. A(B   1,B   3,B   2)           90.0000         0.187756   
     71. A(B   2,B   4,B   7)          112.9815         0.125364   
     72. A(B   6,B   4,B   7)           38.6598         0.125364   
     73. A(B   3,B   4,B   7)           85.1029         0.109292   
     74. A(B   5,B   4,B   7)           51.3402         0.144110   
     75. A(B   2,B   4,B   3)           38.6598         0.125364   
     76. A(B   3,B   4,B   5)           51.3402         0.144110   
     77. A(B   3,B   4,B   6)          112.9815         0.125364   
     78. A(B   2,B   4,B   6)          120.0000         0.154165   
     79. A(B   5,B   4,B   6)           90.0000         0.187756   
     80. A(B   2,B   4,B   5)           90.0000         0.187756   
     81. A(B   2,B   5,B   6)           85.1029         0.109292   
     82. A(B   2,B   5,B   4)           51.3402         0.144110   
     83. A(B   3,B   5,B   6)          112.9815         0.125364   
     84. A(B   2,B   5,B   7)          112.9815         0.125364   
     85. A(B   3,B   5,B   7)          120.0000         0.154165   
     86. A(B   4,B   5,B   7)           90.0000         0.187756   
     87. A(B   4,B   5,B   6)           51.3402         0.144110   
     88. A(B   3,B   5,B   4)           90.0000         0.187756   
     89. A(B   6,B   5,B   7)           38.6598         0.125364   
     90. A(B   2,B   5,B   3)           38.6598         0.125364   
     91. A(B   5,B   6,B   9)           85.1029         0.109292   
     92. A(B   5,B   6,B   8)          112.9815         0.125364   
     93. A(B   4,B   6,B   5)           38.6598         0.125364   
     94. A(B   5,B   6,B   7)           51.3402         0.144110   
     95. A(B   8,B   6,B   9)           38.6598         0.125364   
     96. A(B   4,B   6,B   9)          112.9815         0.125364   
     97. A(B   7,B   6,B   9)           51.3402         0.144110   
     98. A(B   4,B   6,B   8)          120.0000         0.154165   
     99. A(B   7,B   6,B   8)           90.0000         0.187756   
    100. A(B   4,B   6,B   7)           90.0000         0.187756   
    101. A(B   4,B   7,B   8)           85.1029         0.109292   
    102. A(B   4,B   7,B   5)           38.6598         0.125364   
    103. A(B   4,B   7,B   9)          112.9815         0.125364   
    104. A(B   4,B   7,B   6)           51.3402         0.144110   
    105. A(B   5,B   7,B   8)          112.9815         0.125364   
    106. A(B   8,B   7,B   9)           38.6598         0.125364   
    107. A(B   6,B   7,B   8)           51.3402         0.144110   
    108. A(B   5,B   7,B   9)          120.0000         0.154165   
    109. A(B   5,B   7,B   6)           90.0000         0.187756   
    110. A(B   6,B   7,B   9)           90.0000         0.187756   
    111. A(B   9,B   8,B  11)           51.3402         0.144110   
    112. A(B   9,B   8,B  10)           90.0000         0.187756   
    113. A(B   6,B   8,B   7)           38.6598         0.125364   
    114. A(B   7,B   8,B  11)           85.1029         0.109292   
    115. A(B   7,B   8,B  10)          112.9815         0.125364   
    116. A(B   7,B   8,B   9)           51.3402         0.144110   
    117. A(B   6,B   8,B  11)          112.9815         0.125364   
    118. A(B   6,B   8,B  10)          120.0000         0.154165   
    119. A(B   6,B   8,B   9)           90.0000         0.187756   
    120. A(B  10,B   8,B  11)           38.6598         0.125364   
    121. A(B   8,B   9,B  11)           90.0000         0.187756   
    122. A(B   6,B   9,B   7)           38.6598         0.125364   
    123. A(B   6,B   9,B  10)           85.1029         0.109292   
    124. A(B   6,B   9,B  11)          112.9815         0.125364   
    125. A(B   6,B   9,B   8)           51.3402         0.144110   
    126. A(B   7,B   9,B  10)          112.9815         0.125364   
    127. A(B   7,B   9,B  11)          120.0000         0.154165   
    128. A(B   7,B   9,B   8)           90.0000         0.187756   
    129. A(B  10,B   9,B  11)           38.6598         0.125364   
    130. A(B   8,B   9,B  10)           51.3402         0.144110   
    131. A(B   1,B  10,B   8)          112.9815         0.125364   
    132. A(B   0,B  10,B   8)          120.0000         0.154165   
    133. A(B   8,B  10,B  11)           90.0000         0.187756   
    134. A(B   0,B  10,B   1)           38.6598         0.125364   
    135. A(B   1,B  10,B  11)           51.3402         0.144110   
    136. A(B   8,B  10,B   9)           38.6598         0.125364   
    137. A(B   1,B  10,B   9)           85.1029         0.109292   
    138. A(B   0,B  10,B   9)          112.9815         0.125364   
    139. A(B   9,B  10,B  11)           51.3402         0.144110   
    140. A(B   0,B  10,B  11)           90.0000         0.187756   
    141. A(B   1,B  11,B   8)          112.9815         0.125364   
    142. A(B   8,B  11,B  10)           51.3402         0.144110   
    143. A(B   0,B  11,B   9)          112.9815         0.125364   
    144. A(B   1,B  11,B   9)          120.0000         0.154165   
    145. A(B   9,B  11,B  10)           90.0000         0.187756   
    146. A(B   0,B  11,B   1)           38.6598         0.125364   
    147. A(B   0,B  11,B  10)           51.3402         0.144110   
    148. A(B   1,B  11,B  10)           90.0000         0.187756   
    149. A(B   8,B  11,B   9)           38.6598         0.125364   
    150. A(B   0,B  11,B   8)           85.1029         0.109292   
    151. D(B   3,B   1,B   0,B  11)    120.0000         0.010000   
    152. D(B   2,B   1,B   0,B  11)    120.0000         0.010000   
    153. D(B   2,B   1,B   0,B  10)    120.0000         0.010000   
    154. D(B   3,B   1,B   0,B   2)      0.0000         0.010000   
    155. D(B  11,B   1,B   0,B   2)   -120.0000         0.010000   
    156. D(B  11,B   1,B   0,B   3)   -120.0000         0.010000   
    157. D(B   3,B   1,B   0,B  10)    120.0000         0.010000   
    158. D(B   2,B   1,B   0,B   3)      0.0000         0.010000   
    159. D(B   4,B   2,B   1,B   3)     70.1673         0.010000   
    160. D(B   4,B   2,B   1,B   0)   -109.8327         0.010000   
    161. D(B   0,B   2,B   1,B  10)     42.7445         0.010000   
    162. D(B   0,B   2,B   1,B  11)     70.1673         0.010000   
    163. D(B   1,B   2,B   0,B  10)    -90.0000         0.010000   
    164. D(B   1,B   2,B   0,B  11)    -47.2695         0.010000   
    165. D(B   4,B   2,B   0,B   3)     90.0000         0.010000   
    166. D(B   3,B   2,B   1,B   0)    180.0000         0.010000   
    167. D(B   3,B   2,B   0,B  11)    -47.2695         0.010000   
    168. D(B   1,B   2,B   0,B   3)     -0.0000         0.010000   
    169. D(B   0,B   2,B   1,B   3)    180.0000         0.010000   
    170. D(B   3,B   2,B   0,B   1)      0.0000         0.010000   
    171. D(B   3,B   2,B   1,B  10)   -137.2555         0.010000   
    172. D(B   3,B   2,B   1,B  11)   -109.8327         0.010000   
    173. D(B   3,B   2,B   0,B  10)    -90.0000         0.010000   
    174. D(B   4,B   2,B   0,B   1)     90.0000         0.010000   
    175. D(B   1,B   3,B   0,B  10)    -70.1673         0.010000   
    176. D(B   2,B   3,B   0,B  10)    109.8327         0.010000   
    177. D(B   5,B   3,B   0,B   1)    109.8327         0.010000   
    178. D(B   1,B   3,B   0,B  11)    -42.7445         0.010000   
    179. D(B   2,B   3,B   0,B   1)    180.0000         0.010000   
    180. D(B   0,B   3,B   2,B   1)      0.0000         0.010000   
    181. D(B   2,B   3,B   0,B  11)    137.2555         0.010000   
    182. D(B   0,B   3,B   2,B   5)   -120.0000         0.010000   
    183. D(B   5,B   3,B   2,B   0)    120.0000         0.010000   
    184. D(B   1,B   3,B   2,B   5)   -120.0000         0.010000   
    185. D(B   0,B   3,B   1,B  10)     47.2695         0.010000   
    186. D(B   1,B   3,B   2,B   4)   -120.0000         0.010000   
    187. D(B   2,B   3,B   1,B  10)     47.2695         0.010000   
    188. D(B   5,B   3,B   1,B   0)    -90.0000         0.010000   
    189. D(B   1,B   3,B   2,B   0)      0.0000         0.010000   
    190. D(B   5,B   3,B   1,B   2)    -90.0000         0.010000   
    191. D(B   2,B   3,B   1,B  11)     90.0000         0.010000   
    192. D(B   0,B   3,B   1,B  11)     90.0000         0.010000   
    193. D(B   0,B   3,B   1,B   2)      0.0000         0.010000   
    194. D(B   1,B   3,B   0,B   2)   -180.0000         0.010000   
    195. D(B   0,B   3,B   2,B   4)   -120.0000         0.010000   
    196. D(B   2,B   3,B   1,B   0)      0.0000         0.010000   
    197. D(B   5,B   3,B   0,B   2)    -70.1673         0.010000   
    198. D(B   5,B   3,B   2,B   1)    120.0000         0.010000   
    199. D(B   6,B   4,B   2,B   0)      0.0000         0.010000   
    200. D(B   2,B   4,B   3,B   1)     70.1673         0.010000   
    201. D(B   5,B   4,B   3,B   2)    180.0000         0.010000   
    202. D(B   3,B   4,B   2,B   1)    -47.2695         0.010000   
    203. D(B   5,B   4,B   2,B   1)    -47.2695         0.010000   
    204. D(B   6,B   4,B   2,B   3)     90.0000         0.010000   
    205. D(B   3,B   4,B   2,B   5)      0.0000         0.010000   
    206. D(B   2,B   4,B   3,B   0)     42.7445         0.010000   
    207. D(B   6,B   4,B   3,B   2)   -109.8327         0.010000   
    208. D(B   3,B   4,B   2,B   0)    -90.0000         0.010000   
    209. D(B   2,B   4,B   3,B   5)    180.0000         0.010000   
    210. D(B   5,B   4,B   3,B   0)   -137.2555         0.010000   
    211. D(B   5,B   4,B   2,B   0)    -90.0000         0.010000   
    212. D(B   5,B   4,B   3,B   1)   -109.8327         0.010000   
    213. D(B   5,B   4,B   2,B   3)      0.0000         0.010000   
    214. D(B   6,B   4,B   3,B   1)    -39.6655         0.010000   
    215. D(B   7,B   5,B   4,B   3)    120.0000         0.010000   
    216. D(B   2,B   5,B   4,B   7)   -120.0000         0.010000   
    217. D(B   2,B   5,B   4,B   6)   -120.0000         0.010000   
    218. D(B   2,B   5,B   4,B   3)      0.0000         0.010000   
    219. D(B   7,B   5,B   3,B   1)      0.0000         0.010000   
    220. D(B   2,B   5,B   3,B   4)      0.0000         0.010000   
    221. D(B   2,B   5,B   3,B   1)     90.0000         0.010000   
    222. D(B   3,B   5,B   4,B   2)      0.0000         0.010000   
    223. D(B   4,B   5,B   3,B   0)     47.2695         0.010000   
    224. D(B   4,B   5,B   3,B   1)     90.0000         0.010000   
    225. D(B   3,B   5,B   4,B   7)   -120.0000         0.010000   
    226. D(B   2,B   5,B   3,B   0)     47.2695         0.010000   
    227. D(B   4,B   5,B   3,B   2)      0.0000         0.010000   
    228. D(B   7,B   5,B   3,B   2)    -90.0000         0.010000   
    229. D(B   7,B   5,B   2,B   0)     39.6655         0.010000   
    230. D(B   3,B   5,B   2,B   4)    180.0000         0.010000   
    231. D(B   3,B   5,B   2,B   0)    -70.1673         0.010000   
    232. D(B   3,B   5,B   2,B   1)    -42.7445         0.010000   
    233. D(B   4,B   5,B   2,B   1)    137.2555         0.010000   
    234. D(B   4,B   5,B   2,B   0)    109.8327         0.010000   
    235. D(B   7,B   5,B   2,B   3)    109.8327         0.010000   
    236. D(B   7,B   5,B   4,B   2)    120.0000         0.010000   
    237. D(B   4,B   5,B   2,B   3)    180.0000         0.010000   
    238. D(B   3,B   5,B   4,B   6)   -120.0000         0.010000   
    239. D(B   8,B   6,B   5,B   3)    -39.6655         0.010000   
    240. D(B   4,B   6,B   5,B   7)   -180.0000         0.010000   
    241. D(B   4,B   6,B   5,B   2)     42.7445         0.010000   
    242. D(B   4,B   6,B   5,B   3)     70.1673         0.010000   
    243. D(B   7,B   6,B   5,B   4)    180.0000         0.010000   
    244. D(B   9,B   6,B   4,B   5)     47.2695         0.010000   
    245. D(B   7,B   6,B   4,B   3)    -47.2695         0.010000   
    246. D(B   8,B   6,B   4,B   2)      0.0000         0.010000   
    247. D(B   8,B   6,B   4,B   5)     90.0000         0.010000   
    248. D(B   8,B   6,B   4,B   7)     90.0000         0.010000   
    249. D(B   7,B   6,B   4,B   2)    -90.0000         0.010000   
    250. D(B   7,B   6,B   4,B   5)      0.0000         0.010000   
    251. D(B   8,B   6,B   4,B   3)     42.7305         0.010000   
    252. D(B   8,B   6,B   5,B   4)   -109.8327         0.010000   
    253. D(B   7,B   6,B   5,B   2)   -137.2555         0.010000   
    254. D(B   7,B   6,B   5,B   3)   -109.8327         0.010000   
    255. D(B   5,B   7,B   6,B   9)   -120.0000         0.010000   
    256. D(B   5,B   7,B   6,B   8)   -120.0000         0.010000   
    257. D(B   5,B   7,B   6,B   4)     -0.0000         0.010000   
    258. D(B   9,B   7,B   6,B   8)      0.0000         0.010000   
    259. D(B   9,B   7,B   6,B   4)    120.0000         0.010000   
    260. D(B   8,B   7,B   5,B   4)    -47.2695         0.010000   
    261. D(B   9,B   7,B   5,B   4)    -90.0000         0.010000   
    262. D(B   6,B   7,B   5,B   2)     47.2695         0.010000   
    263. D(B   6,B   7,B   5,B   4)      0.0000         0.010000   
    264. D(B   5,B   7,B   4,B   2)    -70.1673         0.010000   
    265. D(B   9,B   7,B   4,B   6)    -70.1673         0.010000   
    266. D(B   9,B   7,B   4,B   3)     67.0883         0.010000   
    267. D(B   9,B   7,B   4,B   2)     39.6655         0.010000   
    268. D(B   9,B   7,B   4,B   5)    109.8327         0.010000   
    269. D(B   6,B   7,B   4,B   3)    137.2555         0.010000   
    270. D(B   6,B   7,B   4,B   2)    109.8327         0.010000   
    271. D(B   6,B   7,B   5,B   3)     90.0000         0.010000   
    272. D(B   9,B   7,B   6,B   5)    120.0000         0.010000   
    273. D(B   6,B   7,B   4,B   5)    180.0000         0.010000   
    274. D(B   9,B   7,B   5,B   3)      0.0000         0.010000   
    275. D(B   9,B   7,B   5,B   6)    -90.0000         0.010000   
    276. D(B   8,B   7,B   6,B   4)    120.0000         0.010000   
    277. D(B   9,B   7,B   5,B   2)    -42.7305         0.010000   
    278. D(B   8,B   7,B   6,B   9)      0.0000         0.010000   
    279. D(B  11,B   8,B   7,B   6)   -137.2555         0.010000   
    280. D(B  10,B   8,B   7,B   5)    -39.6655         0.010000   
    281. D(B  10,B   8,B   7,B   9)     70.1673         0.010000   
    282. D(B  10,B   8,B   7,B   6)   -109.8327         0.010000   
    283. D(B   9,B   8,B   7,B   4)   -137.2555         0.010000   
    284. D(B   9,B   8,B   7,B   5)   -109.8327         0.010000   
    285. D(B   9,B   8,B   7,B   6)    180.0000         0.010000   
    286. D(B  11,B   8,B   6,B   7)     47.2695         0.010000   
    287. D(B  10,B   8,B   6,B   5)     42.7305         0.010000   
    288. D(B  10,B   8,B   6,B   9)     90.0000         0.010000   
    289. D(B  10,B   8,B   6,B   4)      0.0000         0.010000   
    290. D(B  10,B   8,B   6,B   7)     90.0000         0.010000   
    291. D(B   9,B   8,B   6,B   5)    -47.2695         0.010000   
    292. D(B  10,B   8,B   7,B   4)    -67.0883         0.010000   
    293. D(B   9,B   8,B   6,B   4)    -90.0000         0.010000   
    294. D(B   9,B   8,B   6,B   7)      0.0000         0.010000   
    295. D(B   7,B   9,B   8,B  11)   -120.0000         0.010000   
    296. D(B  10,B   9,B   8,B   7)    120.0000         0.010000   
    297. D(B  10,B   9,B   8,B   6)    120.0000         0.010000   
    298. D(B  10,B   9,B   8,B  11)      0.0000         0.010000   
    299. D(B  11,B   9,B   8,B   7)    120.0000         0.010000   
    300. D(B  11,B   9,B   8,B   6)    120.0000         0.010000   
    301. D(B  11,B   9,B   8,B  10)      0.0000         0.010000   
    302. D(B  10,B   9,B   7,B   6)    -47.2695         0.010000   
    303. D(B  11,B   9,B   7,B   4)    -42.7305         0.010000   
    304. D(B  11,B   9,B   7,B   8)    -90.0000         0.010000   
    305. D(B  11,B   9,B   7,B   5)      0.0000         0.010000   
    306. D(B  11,B   9,B   7,B   6)    -90.0000         0.010000   
    307. D(B   8,B   9,B   7,B   4)     47.2695         0.010000   
    308. D(B   8,B   9,B   7,B   5)     90.0000         0.010000   
    309. D(B   8,B   9,B   7,B   6)      0.0000         0.010000   
    310. D(B  10,B   9,B   6,B   7)    137.2555         0.010000   
    311. D(B  11,B   9,B   6,B   5)     67.0883         0.010000   
    312. D(B  11,B   9,B   6,B   8)    -70.1673         0.010000   
    313. D(B  11,B   9,B   6,B   4)     39.6655         0.010000   
    314. D(B  11,B   9,B   6,B   7)    109.8327         0.010000   
    315. D(B   8,B   9,B   6,B   5)    137.2555         0.010000   
    316. D(B   7,B   9,B   8,B  10)   -120.0000         0.010000   
    317. D(B   8,B   9,B   6,B   4)    109.8327         0.010000   
    318. D(B   8,B   9,B   6,B   7)    180.0000         0.010000   
    319. D(B   1,B  10,B   9,B   8)   -137.2555         0.010000   
    320. D(B   0,B  10,B   9,B   7)    -39.6655         0.010000   
    321. D(B   0,B  10,B   9,B  11)     70.1673         0.010000   
    322. D(B   0,B  10,B   9,B   8)   -109.8327         0.010000   
    323. D(B  11,B  10,B   9,B   6)   -137.2555         0.010000   
    324. D(B  11,B  10,B   9,B   7)   -109.8327         0.010000   
    325. D(B  11,B  10,B   9,B   8)    180.0000         0.010000   
    326. D(B   1,B  10,B   8,B   9)     47.2695         0.010000   
    327. D(B   0,B  10,B   8,B   6)      0.0000         0.010000   
    328. D(B   0,B  10,B   8,B  11)     90.0000         0.010000   
    329. D(B   0,B  10,B   8,B   9)     90.0000         0.010000   
    330. D(B  11,B  10,B   8,B   6)    -90.0000         0.010000   
    331. D(B  11,B  10,B   8,B   9)      0.0000         0.010000   
    332. D(B   8,B  10,B   1,B   3)     39.6655         0.010000   
    333. D(B   8,B  10,B   1,B   0)    109.8327         0.010000   
    334. D(B   0,B  10,B   1,B  11)   -180.0000         0.010000   
    335. D(B   0,B  10,B   1,B   2)    -42.7445         0.010000   
    336. D(B  11,B  10,B   8,B   7)    -47.2695         0.010000   
    337. D(B   0,B  10,B   1,B   3)    -70.1673         0.010000   
    338. D(B  11,B  10,B   1,B   2)    137.2555         0.010000   
    339. D(B  11,B  10,B   1,B   3)    109.8327         0.010000   
    340. D(B   0,B  10,B   8,B   7)     42.7305         0.010000   
    341. D(B  11,B  10,B   1,B   0)    180.0000         0.010000   
    342. D(B   8,B  10,B   0,B   2)      0.0000         0.010000   
    343. D(B   8,B  10,B   0,B   1)    -90.0000         0.010000   
    344. D(B   1,B  10,B   0,B  11)      0.0000         0.010000   
    345. D(B   1,B  10,B   0,B   3)     47.2695         0.010000   
    346. D(B   1,B  10,B   0,B   2)     90.0000         0.010000   
    347. D(B  11,B  10,B   0,B   3)     47.2695         0.010000   
    348. D(B   0,B  10,B   9,B   6)    -67.0883         0.010000   
    349. D(B  11,B  10,B   0,B   2)     90.0000         0.010000   
    350. D(B  11,B  10,B   0,B   1)      0.0000         0.010000   
    351. D(B   9,B  11,B  10,B   1)   -120.0000         0.010000   
    352. D(B   0,B  11,B  10,B   9)    120.0000         0.010000   
    353. D(B   0,B  11,B  10,B   8)    120.0000         0.010000   
    354. D(B   0,B  11,B  10,B   1)     -0.0000         0.010000   
    355. D(B   1,B  11,B  10,B   8)    120.0000         0.010000   
    356. D(B   1,B  11,B  10,B   0)     -0.0000         0.010000   
    357. D(B   0,B  11,B   9,B   8)    -47.2695         0.010000   
    358. D(B   1,B  11,B   9,B   7)      0.0000         0.010000   
    359. D(B   1,B  11,B   9,B  10)    -90.0000         0.010000   
    360. D(B   1,B  11,B   9,B   8)    -90.0000         0.010000   
    361. D(B  10,B  11,B   9,B   6)     47.2695         0.010000   
    362. D(B  10,B  11,B   9,B   7)     90.0000         0.010000   
    363. D(B  10,B  11,B   9,B   8)      0.0000         0.010000   
    364. D(B   0,B  11,B   8,B   9)    137.2555         0.010000   
    365. D(B   1,B  11,B   8,B   6)     39.6655         0.010000   
    366. D(B   1,B  11,B   8,B  10)    -70.1673         0.010000   
    367. D(B   1,B  11,B   8,B   9)    109.8327         0.010000   
    368. D(B  10,B  11,B   8,B   7)    137.2555         0.010000   
    369. D(B  10,B  11,B   8,B   6)    109.8327         0.010000   
    370. D(B  10,B  11,B   8,B   9)    180.0000         0.010000   
    371. D(B   9,B  11,B   1,B   3)      0.0000         0.010000   
    372. D(B   1,B  11,B   8,B   7)     67.0883         0.010000   
    373. D(B   9,B  11,B   1,B   0)     90.0000         0.010000   
    374. D(B   0,B  11,B   1,B  10)     -0.0000         0.010000   
    375. D(B   0,B  11,B   1,B   2)    -47.2695         0.010000   
    376. D(B   0,B  11,B   1,B   3)    -90.0000         0.010000   
    377. D(B  10,B  11,B   1,B   2)    -47.2695         0.010000   
    378. D(B  10,B  11,B   1,B   3)    -90.0000         0.010000   
    379. D(B  10,B  11,B   1,B   0)      0.0000         0.010000   
    380. D(B   1,B  11,B   9,B   6)    -42.7305         0.010000   
    381. D(B   9,B  11,B   0,B   2)    -39.6655         0.010000   
    382. D(B   9,B  11,B   0,B   1)   -109.8327         0.010000   
    383. D(B   1,B  11,B   0,B  10)    180.0000         0.010000   
    384. D(B   1,B  11,B  10,B   9)    120.0000         0.010000   
    385. D(B   1,B  11,B   0,B   3)     42.7445         0.010000   
    386. D(B   1,B  11,B   0,B   2)     70.1673         0.010000   
    387. D(B  10,B  11,B   0,B   3)   -137.2555         0.010000   
    388. D(B   9,B  11,B  10,B   0)   -120.0000         0.010000   
    389. D(B  10,B  11,B   0,B   2)   -109.8327         0.010000   
    390. D(B  10,B  11,B   0,B   1)    180.0000         0.010000   
    -----------------------------------------------------------------

Number of atoms                         .... 12
Number of degrees of freedom            .... 390


         *************************************************************
         *                GEOMETRY OPTIMIZATION CYCLE   1            *
         *************************************************************
---------------------------------
CARTESIAN COORDINATES (ANGSTROEM)
---------------------------------
  B      2.500000   -0.000000    1.000000
  B      2.500000   -0.000000   -1.000000
  B      1.250000    2.165064    1.000000
  B      1.250000    2.165064   -1.000000
  B     -1.250000    2.165064    1.000000
  B     -1.250000    2.165064   -1.000000
  B     -2.500000    0.000000    1.000000
  B     -2.500000    0.000000   -1.000000
  B     -1.250000   -2.165064    1.000000
  B     -1.250000   -2.165064   -1.000000
  B      1.250000   -2.165064    1.000000
  B      1.250000   -2.165064   -1.000000

----------------------------
CARTESIAN COORDINATES (A.U.)
----------------------------
  NO LB      ZA    FRAG     MASS         X           Y           Z
   0 B     5.0000    0    10.810    4.724315   -0.000000    1.889726
   1 B     5.0000    0    10.810    4.724315   -0.000000   -1.889726
   2 B     5.0000    0    10.810    2.362158    4.091377    1.889726
   3 B     5.0000    0    10.810    2.362158    4.091377   -1.889726
   4 B     5.0000    0    10.810   -2.362158    4.091377    1.889726
   5 B     5.0000    0    10.810   -2.362158    4.091377   -1.889726
   6 B     5.0000    0    10.810   -4.724315    0.000000    1.889726
   7 B     5.0000    0    10.810   -4.724315    0.000000   -1.889726
   8 B     5.0000    0    10.810   -2.362158   -4.091377    1.889726
   9 B     5.0000    0    10.810   -2.362158   -4.091377   -1.889726
  10 B     5.0000    0    10.810    2.362158   -4.091377    1.889726
  11 B     5.0000    0    10.810    2.362158   -4.091377   -1.889726

--------------------------------
INTERNAL COORDINATES (ANGSTROEM)
--------------------------------
 B      0   0   0     0.000000000000     0.00000000     0.00000000
 B      1   0   0     2.000000000000     0.00000000     0.00000000
 B      1   2   0     2.500000000467    90.00000000     0.00000000
 B      3   1   2     2.000000000000    90.00000000     0.00000000
 B      3   1   2     2.500000000000   119.99999999    90.00000000
 B      5   3   1     2.000000000000    90.00000000   270.00000000
 B      5   3   1     2.500000000467   119.99999999     0.00000000
 B      7   5   3     2.000000000000    90.00000000   270.00000000
 B      7   5   3     2.500000000467   120.00000001     0.00000000
 B      9   7   5     2.000000000000    90.00000000   270.00000000
 B      9   7   5     2.500000000000   119.99999999     0.00000000
 B     11   9   7     2.000000000000    90.00000000   270.00000000

---------------------------
INTERNAL COORDINATES (A.U.)
---------------------------
 B      0   0   0     0.000000000000     0.00000000     0.00000000
 B      1   0   0     3.779452267843     0.00000000     0.00000000
 B      1   2   0     4.724315335685    90.00000000     0.00000000
 B      3   1   2     3.779452267843    90.00000000     0.00000000
 B      3   1   2     4.724315334803   119.99999999    90.00000000
 B      5   3   1     3.779452267843    90.00000000   270.00000000
 B      5   3   1     4.724315335685   119.99999999     0.00000000
 B      7   5   3     3.779452267843    90.00000000   270.00000000
 B      7   5   3     4.724315335685   120.00000001     0.00000000
 B      9   7   5     3.779452267843    90.00000000   270.00000000
 B      9   7   5     4.724315334803   119.99999999     0.00000000
 B     11   9   7     3.779452267843    90.00000000   270.00000000

---------------------
BASIS SET INFORMATION
---------------------
There are 1 groups of distinct atoms

 Group   1 Type B   : 7s4p1d contracted to 3s2p1d pattern {511/31/1}

Atom   0B    basis set group =>   1
Atom   1B    basis set group =>   1
Atom   2B    basis set group =>   1
Atom   3B    basis set group =>   1
Atom   4B    basis set group =>   1
Atom   5B    basis set group =>   1
Atom   6B    basis set group =>   1
Atom   7B    basis set group =>   1
Atom   8B    basis set group =>   1
Atom   9B    basis set group =>   1
Atom  10B    basis set group =>   1
Atom  11B    basis set group =>   1
---------------------------------
AUXILIARY/J BASIS SET INFORMATION
---------------------------------
There are 1 groups of distinct atoms

 Group   1 Type B   : 12s5p4d2f1g contracted to 6s4p3d1f1g pattern {711111/2111/211/2/1}

Atom   0B    basis set group =>   1
Atom   1B    basis set group =>   1
Atom   2B    basis set group =>   1
Atom   3B    basis set group =>   1
Atom   4B    basis set group =>   1
Atom   5B    basis set group =>   1
Atom   6B    basis set group =>   1
Atom   7B    basis set group =>   1
Atom   8B    basis set group =>   1
Atom   9B    basis set group =>   1
Atom  10B    basis set group =>   1
Atom  11B    basis set group =>   1


           ************************************************************
           *        Program running with 8 parallel MPI-processes     *
           *              working on a common directory               *
           ************************************************************
------------------------------------------------------------------------------
                             ORCA STARTUP CALCULATIONS
                           -- RI-GTO INTEGRALS CHOSEN --
------------------------------------------------------------------------------
------------------------------------------------------------------------------
                   ___                                                        
                  /   \      - P O W E R E D   B Y -                         
                 /     \                                                     
                 |  |  |   _    _      __       _____    __    __             
                 |  |  |  | |  | |    /  \     |  _  \  |  |  /  |          
                  \  \/   | |  | |   /    \    | | | |  |  | /  /          
                 / \  \   | |__| |  /  /\  \   | |_| |  |  |/  /          
                |  |  |   |  __  | /  /__\  \  |    /   |      \           
                |  |  |   | |  | | |   __   |  |    \   |  |\   \          
                \     /   | |  | | |  |  |  |  | |\  \  |  | \   \       
                 \___/    |_|  |_| |__|  |__|  |_| \__\ |__|  \__/        
                                                                              
                      - O R C A' S   B I G   F R I E N D -                    
                                      &                                       
                       - I N T E G R A L  F E E D E R -                       
                                                                              
 v1 FN, 2020, v2 2021, v3 2022-2024                                           
------------------------------------------------------------------------------


----------------------
SHARK INTEGRAL PACKAGE
----------------------

Number of atoms                             ...     12
Number of basis functions                   ...    168
Number of shells                            ...     72
Maximum angular momentum                    ...      2
Integral batch strategy                     ... SHARK/LIBINT Hybrid
RI-J (if used) integral strategy            ... SPLIT-RIJ (Revised 2003 algorithm where possible)
Printlevel                                  ...      1
Contraction scheme used                     ... SEGMENTED contraction
Prescreening option                         ... SCHWARTZ
   Thresh                                   ... 2.500e-11
   Tcut                                     ... 2.500e-12
   Tpresel                                  ... 2.500e-12 
Coulomb Range Separation                    ... NOT USED
Exchange Range Separation                   ... NOT USED
Multipole approximations                    ... NOT USED
Finite Nucleus Model                        ... NOT USED
CABS basis                                  ... NOT available
Auxiliary Coulomb fitting basis             ... AVAILABLE
   # of basis functions in Aux-J            ...    588
   # of shells in Aux-J                     ...    180
   Maximum angular momentum in Aux-J        ...      4
Auxiliary J/K fitting basis                 ... NOT available
Auxiliary Correlation fitting basis         ... NOT available
Auxiliary 'external' fitting basis          ... NOT available

Checking pre-screening integrals            ... done (  0.0 sec) Dimension = 72
   => SHARK Basis and OBASIS are compatible. Storing Pre-screening
Shell pair information
Shell pair cut-off parameter TPreSel        ...   2.5e-12
Total number of shell pairs                 ...      2628
Shell pairs after pre-screening             ...      2508
Total number of primitive shell pairs       ...     10596
Primitive shell pairs kept                  ...      7014
          la=0 lb=0:    606 shell pairs
          la=1 lb=0:    852 shell pairs
          la=1 lb=1:    300 shell pairs
          la=2 lb=0:    384 shell pairs
          la=2 lb=1:    288 shell pairs
          la=2 lb=2:     78 shell pairs

Checking whether 4 symmetric matrices of dimension 168 fit in memory
:Max Core in MB      =   2500.00
 MB in use           =      6.68
 MB left             =   2493.32
 MB needed           =      0.43
 Data fit in memory  = YES
Calculating RI/J V-Matrix + Cholesky decomp.... done (  0.0 sec)
Calculating Nuclear repulsion               ... done (  0.0 sec) ENN=    253.337069180788 Eh

Diagonalization of the overlap matrix:
Smallest eigenvalue                        ... 4.054e-04
Time for diagonalization                   ...    0.004 sec
Threshold for overlap eigenvalues          ... 1.000e-07
Number of eigenvalues below threshold      ... 0
Time for construction of square roots      ...    0.002 sec
Total time needed                          ...    0.008 sec

-------------------
DFT GRID GENERATION
-------------------

General Integration Accuracy     IntAcc      ... 4.388
Radial Grid Type                 RadialGrid  ... OptM3 with GC (2021)
Angular Grid (max. ang.)         AngularGrid ... 4 (Lebedev-302)
Angular grid pruning method      GridPruning ... 4 (adaptive)
Weight generation scheme         WeightScheme... mBecke (2022)
Basis function cutoff            BFCut       ... 1.0000e-11
Integration weight cutoff        WCut        ... 1.0000e-14
Partially contracted basis set               ... off
Rotationally invariant grid construction     ... off
Angular grids for H and He will be reduced by one unit

Total number of grid points                  ...    72332
Total number of batches                      ...     1140
Average number of points per batch           ...       63
Average number of grid points per atom       ...     6028
Grids setup in   0.7 sec
Initializing property integral containers    ... done (  0.0 sec)

SHARK setup successfully completed in   0.9 seconds

Maximum memory used throughout the entire STARTUP-calculation: 19.8 MB


           ************************************************************
           *        Program running with 8 parallel MPI-processes     *
           *              working on a common directory               *
           ************************************************************
-------------------------------------------------------------------------------
                                 ORCA GUESS
                   Start orbitals & Density for SCF / CASSCF
-------------------------------------------------------------------------------

------------
SCF SETTINGS
------------
Hamiltonian:
 Density Functional     Method          .... DFT(GTOs)
 Exchange Functional    Exchange        .... B88
   X-Alpha parameter    XAlpha          ....  0.666667
   Becke's b parameter  XBeta           ....  0.004200
 Correlation Functional Correlation     .... P86
 LDA part of GGA corr.  LDAOpt          .... PW91-LDA
 Gradients option       PostSCFGGA      .... off
   NL short-range parameter             ....  4.400000
 RI-approximation to the Coulomb term is turned on
   Number of AuxJ basis functions       .... 588


General Settings:
 Integral files         IntName         .... hex_prism_nn2.00
 Hartree-Fock type      HFTyp           .... RHF
 Total Charge           Charge          ....    0
 Multiplicity           Mult            ....    1
 Number of Electrons    NEL             ....   60
 Basis Dimension        Dim             ....  168
 Nuclear Repulsion      ENuc            ....    253.3370691808 Eh

Convergence Acceleration:
 AO-DIIS                CNVDIIS         .... on
   Start iteration      DIISMaxIt       ....     0
   Startup error        DIISStart       ....  0.200000
   # of expansion vecs  DIISMaxEq       ....     5
   Bias factor          DIISBfac        ....   1.050
   Max. coefficient     DIISMaxC        ....  10.000
 MO-DIIS                CNVKDIIS        .... off
 Trust-Rad. Augm. Hess. CNVTRAH         .... auto
   Auto Start mean grad. ratio tolernc. ....  1.125000
   Auto Start start iteration           ....    50
   Auto Start num. interpolation iter.  ....    10
   Max. Number of Micro iterations      ....    24
   Max. Number of Macro iterations      .... Maxiter - #DIIS iter
   Number of Davidson start vectors     ....     2
   Converg. threshold    (grad. norm)   ....   1.000e-05
   Grad. Scal. Fac. for Micro threshold ....   0.100
   Minimum threshold for Micro iter.    ....   1.000e-02
   NR start threshold (gradient norm)   ....   1.000e-04
   Initial trust radius                 ....   0.400
   Minimum AH scaling param. (alpha)    ....   1.000
   Maximum AH scaling param. (alpha)    .... 1000.000
   Quad. conv. algorithm                .... NR
   White noise on init. David. guess    .... on
   Maximum white noise                  ....   0.010
   Pseudo random numbers                .... off
   Inactive MOs                         .... canonical
   Orbital update algorithm             .... Taylor
   Preconditioner                       .... Diag
   Full preconditioner red. dimension   ....   250
 SOSCF                 CNVSOSCF           .... on
   Start iteration     SOSCFMaxIt         ....   150
   Startup grad/error  SOSCFStart         ....  0.001000
   Hessian update      SOSCFHessUp        .... L-BFGS
   Autom. constraints  SOSCFAutoConstrain .... off
 Level Shifting         CNVShift        .... on
   Level shift para.    LevelShift      ....    0.2500
   Turn off err/grad.   ShiftErr        ....    0.0000
 Zerner damping         CNVZerner       .... off
 Static damping         CNVDamp         .... on
   Fraction old density DampFac         ....    0.8500
   Max. Damping (<1)    DampMax         ....    0.9800
   Min. Damping (>=0)   DampMin         ....    0.0000
   Turn off err/grad.   DampErr         ....    0.0300

SCF Procedure:
 Maximum # iterations   MaxIter         ....   125
 SCF integral mode      SCFMode         .... Direct
   Integral package                     .... SHARK and LIBINT hybrid scheme
 Reset frequency        DirectResetFreq ....    20
 Integral Threshold     Thresh          ....  2.500e-11 Eh
 Primitive CutOff       TCut            ....  2.500e-12 Eh

Convergence Tolerance:
 Convergence Check Mode ConvCheckMode   .... Total+1el-Energy
 Convergence forced     ConvForced      .... 0
 Energy Change          TolE            ....  1.000e-08 Eh
 1-El. energy change                    ....  1.000e-05 Eh
 Orbital Gradient       TolG            ....  1.000e-05
 Orbital Rotation angle TolX            ....  1.000e-05
 DIIS Error             TolErr          ....  5.000e-07

------------------------------
INITIAL GUESS: MODEL POTENTIAL
------------------------------
Loading Hartree-Fock densities                     ... done
Calculating cut-offs                               ... done
Initializing the effective Hamiltonian             ... done
Setting up the integral package (SHARK)            ... done
Starting the Coulomb interaction                   ... done (   0.0 sec)
Making the grid                                    ... done (   0.2 sec)
Mapping shells                                     ... done
Starting the XC term evaluation                    ... done (   0.0 sec)
  promolecular density results
     # of electrons  =     60.000582466
     EX              =    -44.639004740
     EC              =     -1.797635129
     EX+EC           =    -46.436639869
Transforming the Hamiltonian                       ... done (   0.0 sec)
Diagonalizing the Hamiltonian                      ... done (   0.0 sec)
Back transforming the eigenvectors                 ... done (   0.0 sec)
Now organizing SCF variables                       ... done
                      ------------------
                      INITIAL GUESS DONE (   0.4 sec)
                      ------------------
             **** ENERGY FILE WAS UPDATED (hex_prism_nn2.00.en.tmp) ****
Finished Guess after   0.9 sec
Maximum memory used throughout the entire GUESS-calculation: 9.5 MB


           ************************************************************
           *        Program running with 8 parallel MPI-processes     *
           *              working on a common directory               *
           ************************************************************

-------------------------------------------------------------------------------------------
                                      ORCA LEAN-SCF
                              memory conserving SCF solver
-------------------------------------------------------------------------------------------

----------------------------------------D-I-I-S--------------------------------------------
Iteration    Energy (Eh)           Delta-E    RMSDP     MaxDP     DIISErr   Damp  Time(sec)
-------------------------------------------------------------------------------------------
               ***  Starting incremental Fock matrix formation  ***
    1    -296.4726355510186409     0.00e+00  2.12e-03  8.61e-03  3.67e-02  0.850   0.4
Warning: op=0 Small HOMO/LUMO gap (  -0.023) - skipping pre-diagonalization
         Will do a full diagonalization
    2    -296.4843180354927767    -1.17e-02  2.68e-03  1.07e-02  2.93e-02  0.850   0.3
                               ***Turning on AO-DIIS***
    3    -296.4931278722071397    -8.81e-03  1.58e-03  6.37e-03  1.99e-02  0.850   0.3
    4    -296.4983224487972961    -5.19e-03  6.65e-03  2.62e-02  1.42e-02  0.000   0.3
    5    -296.5133162443754031    -1.50e-02  1.57e-03  6.32e-03  9.94e-03  0.000   0.3
    6    -296.5159210213045640    -2.60e-03  7.71e-04  3.15e-03  4.59e-03  0.000   0.4
    7    -296.5165182592003816    -5.97e-04  3.80e-04  1.38e-03  2.11e-03  0.000   0.4
                              *** Initializing SOSCF ***
---------------------------------------S-O-S-C-F--------------------------------------
Iteration    Energy (Eh)           Delta-E    RMSDP     MaxDP     MaxGrad    Time(sec)
--------------------------------------------------------------------------------------
    8    -296.5166759057156582    -1.58e-04  2.30e-04  6.87e-04  9.85e-04     0.5
               *** Restarting incremental Fock matrix formation ***
    9    -296.5167389668195597    -6.31e-05  3.98e-04  1.36e-03  9.29e-04     0.3
   10    -296.5168115285464978    -7.26e-05  1.40e-03  5.09e-03  9.01e-04     0.2
   11    -296.5170003972124846    -1.89e-04  1.53e-03  5.04e-03  9.29e-04     0.3
   12    -296.5170792889401241    -7.89e-05  9.37e-04  3.22e-03  9.46e-04     0.3
   13    -296.5170798590804111    -5.70e-07  5.41e-04  1.81e-03  1.12e-03     0.3
   14    -296.5171194335097766    -3.96e-05  1.11e-04  3.29e-04  2.52e-04     0.3
   15    -296.5171231912003691    -3.76e-06  1.66e-04  5.86e-04  1.52e-04     0.4
   16    -296.5171253833668175    -2.19e-06  3.33e-05  1.68e-04  6.42e-05     0.3
   17    -296.5171255137408366    -1.30e-07  3.16e-05  2.21e-04  4.23e-05     0.3
   18    -296.5171253903000093     1.23e-07  2.19e-05  1.58e-04  9.06e-05     0.4
   19    -296.5171255593313049    -1.69e-07  2.66e-06  1.43e-05  3.80e-06     0.3
   20    -296.5171255568912443     2.44e-09  1.56e-06  1.12e-05  1.16e-05     0.3
                 **** Energy Check signals convergence ****

               *****************************************************
               *                     SUCCESS                       *
               *           SCF CONVERGED AFTER  20 CYCLES          *
               *****************************************************

             **** ENERGY FILE WAS UPDATED (hex_prism_nn2.00.en.tmp) ****

----------------
TOTAL SCF ENERGY
----------------

Total Energy       :       -296.51712556068532 Eh           -8068.64119 eV

Components:
Nuclear Repulsion  :        253.33706918078752 Eh            6893.65212 eV
Electronic Energy  :       -549.85419474147284 Eh          -14962.29331 eV
One Electron Energy:       -895.23030808553233 Eh          -24360.45514 eV
Two Electron Energy:        345.37611334405943 Eh            9398.16184 eV

Virial components:
Potential Energy   :       -586.79464522478952 Eh          -15967.49407 eV
Kinetic Energy     :        290.27751966410420 Eh            7898.85288 eV
Virial Ratio       :          2.02149531215439

DFT components:
N(Alpha)           :       29.999777671655 electrons
N(Beta)            :       29.999777671655 electrons
N(Total)           :       59.999555343311 electrons
E(X)               :      -44.802646560961 Eh       
E(C)               :       -1.828812980948 Eh       
E(XC)              :      -46.631459541909 Eh       

---------------
SCF CONVERGENCE
---------------

  Last Energy change         ...   -2.4401e-09  Tolerance :   1.0000e-08
  Last MAX-Density change    ...    1.1197e-05  Tolerance :   1.0000e-07
  Last RMS-Density change    ...    1.5588e-06  Tolerance :   5.0000e-09
  Last DIIS Error            ...    9.8536e-04  Tolerance :   5.0000e-07
  Last Orbital Gradient      ...    1.1619e-05  Tolerance :   1.0000e-05
  Last Orbital Rotation      ...    1.3912e-05  Tolerance :   1.0000e-05


----------------
ORBITAL ENERGIES
----------------

  NO   OCC          E(Eh)            E(eV) 
   0   2.0000      -6.645746      -180.8399 
   1   2.0000      -6.645637      -180.8370 
   2   2.0000      -6.645635      -180.8369 
   3   2.0000      -6.645634      -180.8369 
   4   2.0000      -6.645517      -180.8337 
   5   2.0000      -6.645516      -180.8337 
   6   2.0000      -6.645514      -180.8336 
   7   2.0000      -6.645514      -180.8336 
   8   2.0000      -6.645387      -180.8302 
   9   2.0000      -6.645387      -180.8302 
  10   2.0000      -6.645373      -180.8298 
  11   2.0000      -6.645229      -180.8259 
  12   2.0000      -0.490841       -13.3565 
  13   2.0000      -0.464234       -12.6325 
  14   2.0000      -0.464234       -12.6325 
  15   2.0000      -0.403761       -10.9869 
  16   2.0000      -0.403759       -10.9868 
  17   2.0000      -0.353316        -9.6142 
  18   2.0000      -0.352311        -9.5869 
  19   2.0000      -0.326959        -8.8970 
  20   2.0000      -0.326959        -8.8970 
  21   2.0000      -0.268121        -7.2960 
  22   2.0000      -0.268121        -7.2959 
  23   2.0000      -0.260416        -7.0863 
  24   2.0000      -0.233639        -6.3576 
  25   2.0000      -0.220158        -5.9908 
  26   2.0000      -0.206815        -5.6277 
  27   2.0000      -0.206814        -5.6277 
  28   2.0000      -0.203452        -5.5362 
  29   2.0000      -0.203451        -5.5362 
  30   0.0000      -0.211570        -5.7571 
  31   0.0000      -0.199995        -5.4421 
  32   0.0000      -0.199992        -5.4420 
  33   0.0000      -0.161938        -4.4066 
  34   0.0000      -0.160672        -4.3721 
  35   0.0000      -0.160671        -4.3721 
  36   0.0000      -0.137572        -3.7435 
  37   0.0000      -0.130982        -3.5642 
  38   0.0000      -0.105396        -2.8680 
  39   0.0000      -0.105396        -2.8680 
  40   0.0000      -0.103652        -2.8205 
*Only the first 10 virtual orbitals were printed.

                    ********************************
                    * MULLIKEN POPULATION ANALYSIS *
                    ********************************

-----------------------
MULLIKEN ATOMIC CHARGES
-----------------------
   0 B :   -0.000030
   1 B :   -0.000031
   2 B :    0.000015
   3 B :    0.000014
   4 B :    0.000016
   5 B :    0.000014
   6 B :   -0.000028
   7 B :   -0.000030
   8 B :    0.000016
   9 B :    0.000015
  10 B :    0.000015
  11 B :    0.000014
Sum of atomic charges:    0.0000000

--------------------------------
MULLIKEN REDUCED ORBITAL CHARGES
--------------------------------
  0 B s       :     3.515875  s :     3.515875
      pz      :     0.597748  p :     1.471028
      px      :     0.334876
      py      :     0.538404
      dz2     :     0.005993  d :     0.013127
      dxz     :     0.001194
      dyz     :     0.002073
      dx2y2   :     0.001497
      dxy     :     0.002370

  1 B s       :     3.515875  s :     3.515875
      pz      :     0.597748  p :     1.471029
      px      :     0.334876
      py      :     0.538405
      dz2     :     0.005993  d :     0.013127
      dxz     :     0.001194
      dyz     :     0.002073
      dx2y2   :     0.001497
      dxy     :     0.002370

  2 B s       :     3.515870  s :     3.515870
      pz      :     0.597828  p :     1.470987
      px      :     0.487487
      py      :     0.385672
      dz2     :     0.005993  d :     0.013127
      dxz     :     0.001853
      dyz     :     0.001413
      dx2y2   :     0.002152
      dxy     :     0.001716

  3 B s       :     3.515871  s :     3.515871
      pz      :     0.597828  p :     1.470988
      px      :     0.487487
      py      :     0.385672
      dz2     :     0.005993  d :     0.013127
      dxz     :     0.001853
      dyz     :     0.001413
      dx2y2   :     0.002152
      dxy     :     0.001716

  4 B s       :     3.515871  s :     3.515871
      pz      :     0.597828  p :     1.470986
      px      :     0.487487
      py      :     0.385672
      dz2     :     0.005993  d :     0.013127
      dxz     :     0.001853
      dyz     :     0.001413
      dx2y2   :     0.002152
      dxy     :     0.001716

  5 B s       :     3.515871  s :     3.515871
      pz      :     0.597828  p :     1.470987
      px      :     0.487487
      py      :     0.385672
      dz2     :     0.005993  d :     0.013127
      dxz     :     0.001853
      dyz     :     0.001413
      dx2y2   :     0.002152
      dxy     :     0.001716

  6 B s       :     3.515874  s :     3.515874
      pz      :     0.597747  p :     1.471027
      px      :     0.334876
      py      :     0.538404
      dz2     :     0.005993  d :     0.013127
      dxz     :     0.001194
      dyz     :     0.002073
      dx2y2   :     0.001497
      dxy     :     0.002370

  7 B s       :     3.515875  s :     3.515875
      pz      :     0.597748  p :     1.471028
      px      :     0.334876
      py      :     0.538404
      dz2     :     0.005993  d :     0.013127
      dxz     :     0.001194
      dyz     :     0.002073
      dx2y2   :     0.001497
      dxy     :     0.002370

  8 B s       :     3.515870  s :     3.515870
      pz      :     0.597828  p :     1.470987
      px      :     0.487487
      py      :     0.385672
      dz2     :     0.005993  d :     0.013127
      dxz     :     0.001853
      dyz     :     0.001413
      dx2y2   :     0.002152
      dxy     :     0.001716

  9 B s       :     3.515871  s :     3.515871
      pz      :     0.597828  p :     1.470987
      px      :     0.487487
      py      :     0.385672
      dz2     :     0.005993  d :     0.013127
      dxz     :     0.001853
      dyz     :     0.001413
      dx2y2   :     0.002152
      dxy     :     0.001716

 10 B s       :     3.515871  s :     3.515871
      pz      :     0.597828  p :     1.470987
      px      :     0.487487
      py      :     0.385672
      dz2     :     0.005993  d :     0.013127
      dxz     :     0.001853
      dyz     :     0.001413
      dx2y2   :     0.002152
      dxy     :     0.001716

 11 B s       :     3.515871  s :     3.515871
      pz      :     0.597828  p :     1.470988
      px      :     0.487487
      py      :     0.385672
      dz2     :     0.005993  d :     0.013127
      dxz     :     0.001853
      dyz     :     0.001413
      dx2y2   :     0.002152
      dxy     :     0.001716



                     *******************************
                     * LOEWDIN POPULATION ANALYSIS *
                     *******************************

----------------------
LOEWDIN ATOMIC CHARGES
----------------------
   0 B :   -0.000011
   1 B :   -0.000012
   2 B :    0.000006
   3 B :    0.000005
   4 B :    0.000006
   5 B :    0.000005
   6 B :   -0.000010
   7 B :   -0.000011
   8 B :    0.000006
   9 B :    0.000005
  10 B :    0.000006
  11 B :    0.000005

-------------------------------
LOEWDIN REDUCED ORBITAL CHARGES
-------------------------------
  0 B s       :     3.267851  s :     3.267851
      pz      :     0.738500  p :     1.703974
      px      :     0.356388
      py      :     0.609086
      dz2     :     0.017683  d :     0.028186
      dxz     :     0.001526
      dyz     :     0.002406
      dx2y2   :     0.002241
      dxy     :     0.004329

  1 B s       :     3.267852  s :     3.267852
      pz      :     0.738500  p :     1.703975
      px      :     0.356389
      py      :     0.609086
      dz2     :     0.017683  d :     0.028186
      dxz     :     0.001526
      dyz     :     0.002406
      dx2y2   :     0.002241
      dxy     :     0.004329

  2 B s       :     3.267862  s :     3.267862
      pz      :     0.738578  p :     1.703946
      px      :     0.545875
      py      :     0.419493
      dz2     :     0.017683  d :     0.028186
      dxz     :     0.002186
      dyz     :     0.001746
      dx2y2   :     0.003808
      dxy     :     0.002764

  3 B s       :     3.267862  s :     3.267862
      pz      :     0.738578  p :     1.703947
      px      :     0.545876
      py      :     0.419493
      dz2     :     0.017683  d :     0.028186
      dxz     :     0.002186
      dyz     :     0.001746
      dx2y2   :     0.003808
      dxy     :     0.002764

  4 B s       :     3.267862  s :     3.267862
      pz      :     0.738578  p :     1.703946
      px      :     0.545875
      py      :     0.419493
      dz2     :     0.017683  d :     0.028186
      dxz     :     0.002186
      dyz     :     0.001746
      dx2y2   :     0.003808
      dxy     :     0.002764

  5 B s       :     3.267862  s :     3.267862
      pz      :     0.738578  p :     1.703947
      px      :     0.545876
      py      :     0.419493
      dz2     :     0.017683  d :     0.028186
      dxz     :     0.002186
      dyz     :     0.001746
      dx2y2   :     0.003808
      dxy     :     0.002764

  6 B s       :     3.267851  s :     3.267851
      pz      :     0.738500  p :     1.703973
      px      :     0.356388
      py      :     0.609086
      dz2     :     0.017683  d :     0.028186
      dxz     :     0.001526
      dyz     :     0.002406
      dx2y2   :     0.002241
      dxy     :     0.004329

  7 B s       :     3.267851  s :     3.267851
      pz      :     0.738500  p :     1.703974
      px      :     0.356388
      py      :     0.609086
      dz2     :     0.017683  d :     0.028186
      dxz     :     0.001526
      dyz     :     0.002406
      dx2y2   :     0.002241
      dxy     :     0.004329

  8 B s       :     3.267862  s :     3.267862
      pz      :     0.738578  p :     1.703946
      px      :     0.545875
      py      :     0.419493
      dz2     :     0.017683  d :     0.028186
      dxz     :     0.002186
      dyz     :     0.001746
      dx2y2   :     0.003808
      dxy     :     0.002764

  9 B s       :     3.267862  s :     3.267862
      pz      :     0.738578  p :     1.703947
      px      :     0.545876
      py      :     0.419493
      dz2     :     0.017683  d :     0.028186
      dxz     :     0.002186
      dyz     :     0.001746
      dx2y2   :     0.003808
      dxy     :     0.002764

 10 B s       :     3.267862  s :     3.267862
      pz      :     0.738578  p :     1.703946
      px      :     0.545875
      py      :     0.419493
      dz2     :     0.017683  d :     0.028186
      dxz     :     0.002186
      dyz     :     0.001746
      dx2y2   :     0.003808
      dxy     :     0.002764

 11 B s       :     3.267862  s :     3.267862
      pz      :     0.738578  p :     1.703947
      px      :     0.545876
      py      :     0.419493
      dz2     :     0.017683  d :     0.028186
      dxz     :     0.002186
      dyz     :     0.001746
      dx2y2   :     0.003808
      dxy     :     0.002764



                      *****************************
                      * MAYER POPULATION ANALYSIS *
                      *****************************

  NA   - Mulliken gross atomic population
  ZA   - Total nuclear charge
  QA   - Mulliken gross atomic charge
  VA   - Mayer's total valence
  BVA  - Mayer's bonded valence
  FA   - Mayer's free valence

  ATOM       NA         ZA         QA         VA         BVA        FA
  0 B      5.0000     5.0000    -0.0000     2.7936     2.7936    -0.0000
  1 B      5.0000     5.0000    -0.0000     2.7936     2.7936     0.0000
  2 B      5.0000     5.0000     0.0000     2.7935     2.7935     0.0000
  3 B      5.0000     5.0000     0.0000     2.7935     2.7935     0.0000
  4 B      5.0000     5.0000     0.0000     2.7935     2.7935     0.0000
  5 B      5.0000     5.0000     0.0000     2.7935     2.7935     0.0000
  6 B      5.0000     5.0000    -0.0000     2.7936     2.7936     0.0000
  7 B      5.0000     5.0000    -0.0000     2.7936     2.7936     0.0000
  8 B      5.0000     5.0000     0.0000     2.7935     2.7935     0.0000
  9 B      5.0000     5.0000     0.0000     2.7935     2.7935     0.0000
 10 B      5.0000     5.0000     0.0000     2.7935     2.7935     0.0000
 11 B      5.0000     5.0000     0.0000     2.7935     2.7935     0.0000

  Mayer bond orders larger than 0.100000
B(  0-B ,  1-B ) :   0.9282 B(  0-B ,  2-B ) :   0.5693 B(  0-B ,  3-B ) :   0.1786 
B(  0-B , 10-B ) :   0.5693 B(  0-B , 11-B ) :   0.1786 B(  1-B ,  2-B ) :   0.1786 
B(  1-B ,  3-B ) :   0.5693 B(  1-B , 10-B ) :   0.1786 B(  1-B , 11-B ) :   0.5693 
B(  2-B ,  3-B ) :   0.9281 B(  2-B ,  4-B ) :   0.5693 B(  2-B ,  5-B ) :   0.1786 
B(  3-B ,  4-B ) :   0.1786 B(  3-B ,  5-B ) :   0.5693 B(  4-B ,  5-B ) :   0.9281 
B(  4-B ,  6-B ) :   0.5693 B(  4-B ,  7-B ) :   0.1786 B(  5-B ,  6-B ) :   0.1786 
B(  5-B ,  7-B ) :   0.5693 B(  6-B ,  7-B ) :   0.9282 B(  6-B ,  8-B ) :   0.5693 
B(  6-B ,  9-B ) :   0.1786 B(  7-B ,  8-B ) :   0.1786 B(  7-B ,  9-B ) :   0.5693 
B(  8-B ,  9-B ) :   0.9281 B(  8-B , 10-B ) :   0.5693 B(  8-B , 11-B ) :   0.1786 
B(  9-B , 10-B ) :   0.1786 B(  9-B , 11-B ) :   0.5693 B( 10-B , 11-B ) :   0.9281 


-------
TIMINGS
-------

Total SCF time: 0 days 0 hours 0 min 7 sec 

Total time                  ....       7.368 sec
Sum of individual times     ....       7.048 sec  ( 95.7%)

SCF preparation             ....       0.514 sec  (  7.0%)
Fock matrix formation       ....       5.377 sec  ( 73.0%)
  Startup                   ....       0.017 sec  (  0.3% of F)
  Split-RI-J                ....       1.798 sec  ( 33.4% of F)
  XC integration            ....       3.335 sec  ( 62.0% of F)
    XC Preparation          ....       0.000 sec  (  0.0% of XC)
    Basis function eval.    ....       0.869 sec  ( 26.0% of XC)
    Density eval.           ....       0.526 sec  ( 15.8% of XC)
    XC-Functional eval.     ....       0.125 sec  (  3.8% of XC)
    XC-Potential eval.      ....       0.652 sec  ( 19.5% of XC)
Diagonalization             ....       0.000 sec  (  0.0%)
Density matrix formation    ....       0.180 sec  (  2.4%)
Total Energy calculation    ....       0.110 sec  (  1.5%)
Population analysis         ....       0.055 sec  (  0.7%)
Orbital Transformation      ....       0.057 sec  (  0.8%)
Orbital Orthonormalization  ....       0.000 sec  (  0.0%)
DIIS solution               ....       0.236 sec  (  3.2%)
SOSCF solution              ....       0.520 sec  (  7.1%)
[...]

  8 B s       :     2.725536  s :     2.725536
      pz      :     0.755869  p :     2.217568
      px      :     0.731025
      py      :     0.730675
      dz2     :     0.014548  d :     0.056143
      dxz     :     0.011037
      dyz     :     0.011050
      dx2y2   :     0.011112
      dxy     :     0.008395

  9 B s       :     2.720880  s :     2.720880
      pz      :     0.755747  p :     2.218110
      px      :     0.850441
      py      :     0.611922
      dz2     :     0.014561  d :     0.056147
      dxz     :     0.011987
      dyz     :     0.010142
      dx2y2   :     0.009049
      dxy     :     0.010408

 10 B s       :     2.724443  s :     2.724443
      pz      :     0.755869  p :     2.219678
      px      :     0.851197
      py      :     0.612613
      dz2     :     0.014567  d :     0.056204
      dxz     :     0.012023
      dyz     :     0.010148
      dx2y2   :     0.009038
      dxy     :     0.010428

 11 B s       :     2.729169  s :     2.729169
      pz      :     0.755365  p :     2.218724
      px      :     0.731702
      py      :     0.731657
      dz2     :     0.014549  d :     0.056176
      dxz     :     0.011069
      dyz     :     0.011062
      dx2y2   :     0.011120
      dxy     :     0.008377



                     *******************************
                     * LOEWDIN POPULATION ANALYSIS *
                     *******************************

----------------------
LOEWDIN ATOMIC CHARGES
----------------------
   0 B :    0.000323
   1 B :   -0.000106
   2 B :   -0.000702
   3 B :    0.000568
   4 B :    0.000402
   5 B :   -0.001099
   6 B :    0.000205
   7 B :    0.001076
   8 B :   -0.000438
   9 B :   -0.000647
  10 B :    0.000231
  11 B :    0.000187

-------------------------------
LOEWDIN REDUCED ORBITAL CHARGES
-------------------------------
  0 B s       :     2.675304  s :     2.675304
      pz      :     0.790750  p :     2.181414
      px      :     0.546314
      py      :     0.844350
      dz2     :     0.040560  d :     0.142959
      dxz     :     0.017793
      dyz     :     0.033027
      dx2y2   :     0.023452
      dxy     :     0.028127

  1 B s       :     2.675173  s :     2.675173
      pz      :     0.791627  p :     2.182039
      px      :     0.546053
      py      :     0.844360
      dz2     :     0.040564  d :     0.142893
      dxz     :     0.017782
      dyz     :     0.032978
      dx2y2   :     0.023434
      dxy     :     0.028136

  2 B s       :     2.675006  s :     2.675006
      pz      :     0.791118  p :     2.182804
      px      :     0.695722
      py      :     0.695964
      dz2     :     0.040570  d :     0.142892
      dxz     :     0.025381
      dyz     :     0.025354
      dx2y2   :     0.030489
      dxy     :     0.021097

  3 B s       :     2.675261  s :     2.675261
      pz      :     0.791739  p :     2.181112
      px      :     0.844223
      py      :     0.545150
      dz2     :     0.040579  d :     0.143059
      dxz     :     0.033037
      dyz     :     0.017769
      dx2y2   :     0.023500
      dxy     :     0.028173

  4 B s       :     2.675227  s :     2.675227
      pz      :     0.791374  p :     2.181317
      px      :     0.844201
      py      :     0.545742
      dz2     :     0.040587  d :     0.143054
      dxz     :     0.033069
      dyz     :     0.017774
      dx2y2   :     0.023487
      dxy     :     0.028137

  5 B s       :     2.674934  s :     2.674934
      pz      :     0.790850  p :     2.183286
      px      :     0.696395
      py      :     0.696042
      dz2     :     0.040569  d :     0.142879
      dxz     :     0.025396
      dyz     :     0.025362
      dx2y2   :     0.030464
      dxy     :     0.021088

  6 B s       :     2.675292  s :     2.675292
      pz      :     0.791354  p :     2.181577
      px      :     0.545978
      py      :     0.844245
      dz2     :     0.040552  d :     0.142925
      dxz     :     0.017767
      dyz     :     0.033014
      dx2y2   :     0.023461
      dxy     :     0.028131

  7 B s       :     2.675497  s :     2.675497
      pz      :     0.790855  p :     2.180392
      px      :     0.544984
      py      :     0.844554
      dz2     :     0.040554  d :     0.143035
      dxz     :     0.017757
      dyz     :     0.033098
      dx2y2   :     0.023470
      dxy     :     0.028155

  8 B s       :     2.675167  s :     2.675167
      pz      :     0.791704  p :     2.182405
      px      :     0.695299
      py      :     0.695403
      dz2     :     0.040548  d :     0.142866
      dxz     :     0.025313
      dyz     :     0.025390
      dx2y2   :     0.030510
      dxy     :     0.021104

  9 B s       :     2.675005  s :     2.675005
      pz      :     0.791249  p :     2.182760
      px      :     0.844389
      py      :     0.547122
      dz2     :     0.040585  d :     0.142882
      dxz     :     0.032942
      dyz     :     0.017804
      dx2y2   :     0.023429
      dxy     :     0.028123

 10 B s       :     2.675220  s :     2.675220
      pz      :     0.791330  p :     2.181537
      px      :     0.844486
      py      :     0.545721
      dz2     :     0.040579  d :     0.143013
      dxz     :     0.033028
      dyz     :     0.017797
      dx2y2   :     0.023462
      dxy     :     0.028146

 11 B s       :     2.675317  s :     2.675317
      pz      :     0.791287  p :     2.181518
      px      :     0.695038
      py      :     0.695193
      dz2     :     0.040548  d :     0.142978
      dxz     :     0.025399
      dyz     :     0.025390
      dx2y2   :     0.030495
      dxy     :     0.021145



                      *****************************
                      * MAYER POPULATION ANALYSIS *
                      *****************************

  NA   - Mulliken gross atomic population
  ZA   - Total nuclear charge
  QA   - Mulliken gross atomic charge
  VA   - Mayer's total valence
  BVA  - Mayer's bonded valence
  FA   - Mayer's free valence

  ATOM       NA         ZA         QA         VA         BVA        FA
  0 B      5.0011     5.0000    -0.0011     4.2283     4.2283     0.0000
  1 B      4.9968     5.0000     0.0032     4.2236     4.2236     0.0000
  2 B      4.9977     5.0000     0.0023     4.2248     4.2248     0.0000
  3 B      5.0035     5.0000    -0.0035     4.2322     4.2322     0.0000
  4 B      5.0016     5.0000    -0.0016     4.2297     4.2297     0.0000
  5 B      4.9955     5.0000     0.0045     4.2214     4.2214     0.0000
  6 B      5.0001     5.0000    -0.0001     4.2269     4.2269     0.0000
  7 B      5.0049     5.0000    -0.0049     4.2332     4.2332     0.0000
  8 B      4.9992     5.0000     0.0008     4.2259     4.2259    -0.0000
  9 B      4.9951     5.0000     0.0049     4.2220     4.2220    -0.0000
 10 B      5.0003     5.0000    -0.0003     4.2281     4.2281    -0.0000
 11 B      5.0041     5.0000    -0.0041     4.2311     4.2311     0.0000

  Mayer bond orders larger than 0.100000
B(  0-B ,  1-B ) :   0.7547 B(  0-B ,  2-B ) :   1.0031 B(  0-B ,  3-B ) :   0.1192 
B(  0-B ,  4-B ) :   0.1797 B(  0-B ,  8-B ) :   0.1777 B(  0-B ,  9-B ) :   0.1194 
B(  0-B , 10-B ) :   1.0027 B(  0-B , 11-B ) :   0.7530 B(  1-B ,  2-B ) :   0.7547 
B(  1-B ,  3-B ) :   1.0018 B(  1-B ,  4-B ) :   0.1193 B(  1-B ,  5-B ) :   0.1754 
B(  1-B ,  9-B ) :   0.1760 B(  1-B , 10-B ) :   0.1194 B(  1-B , 11-B ) :   1.0034 
B(  2-B ,  3-B ) :   0.7538 B(  2-B ,  4-B ) :   1.0021 B(  2-B ,  5-B ) :   0.1195 
B(  2-B ,  6-B ) :   0.1770 B(  2-B , 10-B ) :   0.1775 B(  2-B , 11-B ) :   0.1193 
B(  3-B ,  4-B ) :   0.7539 B(  3-B ,  5-B ) :   1.0032 B(  3-B ,  6-B ) :   0.1196 
B(  3-B ,  7-B ) :   0.1817 B(  3-B , 11-B ) :   0.1801 B(  4-B ,  5-B ) :   0.7540 
B(  4-B ,  6-B ) :   1.0034 B(  4-B ,  7-B ) :   0.1195 B(  4-B ,  8-B ) :   0.1781 
B(  5-B ,  6-B ) :   0.7539 B(  5-B ,  7-B ) :   1.0033 B(  5-B ,  8-B ) :   0.1191 
B(  5-B ,  9-B ) :   0.1748 B(  6-B ,  7-B ) :   0.7539 B(  6-B ,  8-B ) :   1.0025 
B(  6-B ,  9-B ) :   0.1190 B(  6-B , 10-B ) :   0.1787 B(  7-B ,  8-B ) :   0.7537 
B(  7-B ,  9-B ) :   1.0017 B(  7-B , 10-B ) :   0.1193 B(  7-B , 11-B ) :   0.1809 
B(  8-B ,  9-B ) :   0.7546 B(  8-B , 10-B ) :   1.0029 B(  8-B , 11-B ) :   0.1196 
B(  9-B , 10-B ) :   0.7546 B(  9-B , 11-B ) :   1.0032 B( 10-B , 11-B ) :   0.7533 


-------
TIMINGS
-------

Total SCF time: 0 days 0 hours 0 min 3 sec 

Total time                  ....       3.317 sec
Sum of individual times     ....       2.970 sec  ( 89.6%)

SCF preparation             ....       0.499 sec  ( 15.0%)
Fock matrix formation       ....       2.022 sec  ( 61.0%)
  Startup                   ....       0.008 sec  (  0.4% of F)
  Split-RI-J                ....       0.719 sec  ( 35.6% of F)
  XC integration            ....       1.470 sec  ( 72.7% of F)
    XC Preparation          ....       0.000 sec  (  0.0% of XC)
    Basis function eval.    ....       0.373 sec  ( 25.4% of XC)
    Density eval.           ....       0.304 sec  ( 20.7% of XC)
    XC-Functional eval.     ....       0.042 sec  (  2.9% of XC)
    XC-Potential eval.      ....       0.353 sec  ( 24.0% of XC)
Diagonalization             ....       0.000 sec  (  0.0%)
Density matrix formation    ....       0.027 sec  (  0.8%)
Total Energy calculation    ....       0.017 sec  (  0.5%)
Population analysis         ....       0.161 sec  (  4.9%)
Orbital Transformation      ....       0.091 sec  (  2.7%)
Orbital Orthonormalization  ....       0.000 sec  (  0.0%)
DIIS solution               ....       0.023 sec  (  0.7%)
SOSCF solution              ....       0.130 sec  (  3.9%)
Finished LeanSCF after   3.5 sec

Maximum memory used throughout the entire LEANSCF-calculation: 12.3 MB


-------------------------------------------------------------------------------
                          DFT DISPERSION CORRECTION                            
                                                                               
                              DFTD3 V3.1  Rev 1                                
                          USING Becke-Johnson damping                          
-------------------------------------------------------------------------------
The BP86 functional is recognized
Active option DFTDOPT                   ...         4   

molecular C6(AA) [au] = 4067.149222 


            DFT-D V3
 parameters
 s6 scaling factor         :     1.0000 
 a1 scaling factor         :     0.3946 
 s8 scaling factor         :     3.2822 
 a2 scaling factor         :     4.8516 
 ad hoc parameters k1-k3   :    16.0000     1.3333    -4.0000 

 Edisp/kcal,au: -22.784466473302  -0.036309354655 
 E6   /kcal   :  -6.461998742 
 E8   /kcal   : -16.322467731 
 % E8         :  71.638577759 

-------------------------   ----------------
Dispersion correction           -0.036309355
-------------------------   ----------------


-------------------------   --------------------
FINAL SINGLE POINT ENERGY      -297.694729544713
-------------------------   --------------------

                                *** OPTIMIZATION RUN DONE ***



           ************************************************************
           *        Program running with 8 parallel MPI-processes     *
           *              working on a common directory               *
           ************************************************************

------------------------------------------------------------------------------
                              ORCA PROPERTY CALCULATIONS
------------------------------------------------------------------------------

GBWName                                 ... hex_prism_nn2.00.gbw
Number of atoms                         ...     12
Number of basis functions               ...    168
Max core memory                         ...   2500 MB

Electric properties:
Dipole moment                           ... YES
Quadrupole moment                       ...  NO
Static polarizability (Dipole/Dipole)   ...  NO
Static polarizability (Dipole/Quad.)    ...  NO
Static polarizability (Quad./Quad.)     ...  NO
Static polarizability (Velocity)        ...  NO
Static hyperpolarizability              ...  NO

Atomic electric properties:
Dipole moment                           ...  NO
Quadrupole moment                       ...  NO
Static polarizability                   ...  NO

Choice of electric origin               ... Center of mass
Position of electric origin             ...    -0.000000     0.000000     0.000000

General magnetic properties:
Magnetizability                         ...  NO

EPR properties:
g-Tensor (aka g-matrix)                 ...  NO
Zero-Field splitting spin-orbit         ...  NO
Zero-field splitting spin-spin          ...  NO
Hyperfine couplings                     ...  NO (   0 nuclei)
Quadrupole couplings                    ...  NO (   0 nuclei)
Contact density                         ...  NO (   0 nuclei)

NMR properties:
Chemical shifts                         ...  NO (   0 nuclei)
Spin-rotation constants                 ...  NO (   0 nuclei)
Spin-spin couplings                     ...  NO (   0 nuclei,    0 pairs)

Choice of magnetic origin               ... GIAO
Position of magnetic origin             ...     0.000000     0.000000     0.000000

Properties with geometric perturbations:
SCF Hessian                             ...  NO
IR spectrum                             ...  NO
VCD spectrum                            ...  NO
X-ray spectroscopy properties:
SCF XES/XAS/RIXS spectra                ...  NO

SCF SOC stabilization energy            ...  NO
Diagonal Born-Oppenheimer correction    ...  NO

-------------
DIPOLE MOMENT
-------------

Method             : SCF
Type of density    : Electron Density
Multiplicity       :   1
Irrep              :   0
Energy             :  -297.6584201900579956 Eh
Basis              : AO
                                X                 Y                 Z
Electronic contribution:     -0.000022064      -0.000000594      -0.000013868
Nuclear contribution   :     -0.000000000       0.000000000       0.000000000
                        -----------------------------------------
Total Dipole Moment    :     -0.000022064      -0.000000594      -0.000013868
                        -----------------------------------------
Magnitude (a.u.)       :      0.000026067
Magnitude (Debye)      :      0.000066258



--------------------
Rotational spectrum 
--------------------
 
Rotational constants in cm-1:             0.068555             0.068485             0.048298 
Rotational constants in MHz :          2055.231268          2053.127086          1447.931987 

Dipole components along the rotational axes: 
x,y,z [a.u.] :    -0.000015    -0.000016    -0.000014 
x,y,z [Debye]:    -0.000038    -0.000041    -0.000035 

 

Dipole moment calculation done in   0.0 sec 

Maximum memory used throughout the entire PROP-calculation: 9.9 MB

--------------------------------
SUGGESTED CITATIONS FOR THIS RUN
--------------------------------

Below you find a list of papers that are relevant to this ORCA run
We neither can nor want to force you to cite these papers, but we appreciate if you do
You receive ORCA, which is the product of decades of hard work by many enthusiastic individuals, for free
The only thing we kindly ask in return is that you cite our papers,
We deeply appreciate it, if you show your appreciation for ORCA by not just citing the generic ORCA reference.

Please note that relegating all ORCA citations to the supporting information does *not* help us.
SI sections are not indexed - citations you put there will not count into any citation statistics
But we need these citations in order to attract the funding resources that allow us to do what we are doing

Therefore, if you are a happy ORCA user, please consider citing a few of the papers listed below in the main body of your paper

In addition to the list printed below, the program has created the file hex_prism_nn2.00.bibtex that contains the list in bibtex format
You can import this file easily into all common literature databanks and citation aid programs

It goes without saying that in many instances, there are alternative algorithms to achieve similar
results as the ones you have gotten from ORCA. It is, of course, also the case that in some instances
ORCA just re-implements algorithms worked out by others. We are fully aware of that and we are also
fully appreciative of our colleagues work. Hence this citation list should not be read as indicating
that the listed papers, which are focused on our own work, are the only ones worth citing. It simply
meant to make it easier for users to cite ORCA specific papers. It is not a substitute for doing your
own literature research and citing the relevant literature in a scientifically appropriate manner.

List of essential papers. We consider these as the minimum necessary citations

  1. Neese, F.
     Software update: the ORCA program system, version 6.0
     WIRES Comput. Molec. Sci. 2025 15(1), e70019
     doi.org/10.1002/wcms.70019

List of papers to cite with high priority. The work reported in these papers was absolutely
necessary for this run to complete.
Our perspective: the developers of density functionals and basis sets usually get cited in chemistry papers
Good! But without the algorithms to do something with them, the functionals or basis sets would not do anything.
Hence, in our opinion, the algorithm design and method developments papers are equally worthy of getting cited

  1. Neese, F.
     An improvement of the resolution of the identity approximation for the formation of the Coulomb matrix
     J. Comp. Chem. 2003 24(14), 1740-1747
     doi.org/10.1002/jcc.10318
  2. Grimme, S.; Antony, J.; Ehrlich, S.; Krieg, H.
     A consistent and accurate ab initio parametrization of density functional dispersion correction (DFT-D) for the 94 elements H-Pu
     J. Chem. Phys. 2010 132 , 154104
     doi.org/10.1063/1.3382344
  3. Grimme, S.; Ehrlich, S.; Goerigk, L.
     Effect of the damping function in dispersion corrected density functional theory
     J. Comput. Chem. 2011 32(7), 1456-1465
     doi.org/10.1002/jcc.21759
  4. Neese, F.
     The SHARK Integral Generation and Digestion System
     J. Comp. Chem. 2022 44(3), 381
     doi.org/10.1002/jcc.26942

List of suggested additional citations. These are papers that are important in the 'surrounding' of 
of this run, or papers that preceded the highly important papers. If you like your results we are grateful for a citation.

  1. Neese, F.
     The ORCA program system
     WIRES Comput. Molec. Sci. 2012 2(1), 73-78
     doi.org/10.1002/wcms.81
  2. Neese, F.
     Software update: the ORCA program system, version 4.0
     WIRES Comput. Molec. Sci. 2018 8(1), 1-6
     doi.org/10.1002/wcms.1327
  3. Neese, F.; Wennmohs, F.; Becker, U.; Riplinger, C.
     The ORCA quantum chemistry program package
     J. Chem. Phys. 2020 152(22), 224108
     doi.org/10.1063/5.0004608
  4. Neese, F.
     Software update: The ORCA program system—Version 5.0
     WIRES Comput. Molec. Sci. 2022 12(1), e1606
     doi.org/10.1002/wcms.1606

List of optional additional citations

  1. Neese, F.
     Approximate second-order SCF convergence for spin unrestricted wavefunctions
     Chem. Phys. Lett. 2000 325(1-3), 93-98
     doi.org/10.1016/s0009-2614(00)00662-x

Timings for individual modules:

Sum of individual times          ...      644.569 sec (=  10.743 min)
Startup calculation              ...       88.820 sec (=   1.480 min)  13.8 %
SCF iterations                   ...      431.502 sec (=   7.192 min)  66.9 %
Property calculations            ...        0.666 sec (=   0.011 min)   0.1 %
SCF Gradient evaluation          ...      120.813 sec (=   2.014 min)  18.7 %
Geometry relaxation              ...        2.768 sec (=   0.046 min)   0.4 %
                             ****ORCA TERMINATED NORMALLY****
TOTAL RUN TIME: 0 days 0 hours 11 minutes 25 seconds 33 msec
