
                                 *****************
                                 * O   R   C   A *
                                 *****************

                                            #,                                       
                                            ###                                      
                                            ####                                     
                                            #####                                    
                                            ######                                   
                                           ########,                                 
                                     ,,################,,,,,                         
                               ,,#################################,,                 
                          ,,##########################################,,             
                       ,#########################################, ''#####,          
                    ,#############################################,,   '####,        
                  ,##################################################,,,,####,       
                ,###########''''           ''''###############################       
              ,#####''   ,,,,##########,,,,          '''####'''          '####       
            ,##' ,,,,###########################,,,                        '##       
           ' ,,###''''                  '''############,,,                           
         ,,##''                                '''############,,,,        ,,,,,,###''
      ,#''                                            '''#######################'''  
     '                                                          ''''####''''         
             ,#######,   #######,   ,#######,      ##                                
            ,#'     '#,  ##    ##  ,#'     '#,    #''#        ,####,    ,#,          
            ##       ##  ##   ,#'  ##            #'  '#       #'       ,# #          
            ##       ##  #######   ##           ,######,      #####,      #          
            '#,     ,#'  ##    ##  '#,     ,#' ,#      #,     #,   #      #          
             '#######'   ##     ##  '#######'  #'      '#     '####' #    #          



                #########################################################
                #                        -***-                          #
                #          Department of theory and spectroscopy        #
                #                                                       #
                #                      Frank Neese                      #
                #                                                       #
                #     Directorship, Architecture, Infrastructure        #
                #                    SHARK, DRIVERS                     #
                #        Core code/Algorithms in most modules           #
                #                                                       #
                #        Max Planck Institute fuer Kohlenforschung      #
                #                Kaiser Wilhelm Platz 1                 #
                #                 D-45470 Muelheim/Ruhr                 #
                #                      Germany                          #
                #                                                       #
                #                  All rights reserved                  #
                #                        -***-                          #
                #########################################################


                         Program Version 6.1.1  -  RELEASE   -
                                (GIT: $487d211c$)
                          ($2025-11-21 10:33:24 +0100$)
                                                                         
                                  - NO-DMRG VERSION -                    
                                                                         


 With contributions from (in alphabetic order):
[Max-Planck-Institut fuer Kohlenforschung]                               
  Daniel Aravena         : Magnetic Suceptibility                        
  Michael Atanasov       : Ab Initio Ligand Field Theory (pilot matlab implementation)
  Alexander A. Auer      : GIAO ZORA, VPT2 properties, NMR spectrum      
  Ute Becker             : All parallelization in ORCA, NUMFREQ, NUMCALC 
  Giovanni Bistoni       : ED, misc. LED, open-shell LED, HFLD           
  Dmytro Bykov           : pre 5.0 version of the SCF Hessian            
  Marcos Casanova-Páez   : Triplet and SCS-CIS(D). UHF-(DLPNO)-IP/EA/STEOM-CCSD. UHF-CVS-IP/STEOM-CCSD   
  Vijay G. Chilkuri      : MRCI spin determinant printing, contributions to CSF-ICE 
  Pauline Colinet        : FMM embedding                                 
  Dipayan Datta          : RHF DLPNO-CCSD density                        
  Achintya Kumar Dutta   : EOM-CC, STEOM-CC                              
  Nicolas Foglia         : Exact transition moments, OPA infrastructure, MCD improvements    
  Dmitry Ganyushin       : Spin-Orbit,Spin-Spin,Magnetic field MRCI      
  Miquel Garcia-Rates    : C-PCM and meta-GGA Hessian, CCSD/C-PCM, Gaussian charge scheme 
  Tiago L. C. Gouveia    : GS-ROHF, GS-ROCIS                             
  Yang Guo               : DLPNO-NEVPT2, F12-NEVPT2, CIM, IAO-localization        
  Andreas Hansen         : Spin unrestricted coupled pair/coupled cluster methods 
  Ingolf Harden          : AUTO-CI MPn and infrastructure                
  Benjamin Helmich-Paris : MC-RPA, TRAH-(SCF,CASSCF), AVAS, COSX integrals, SCF dyn. polar., MC-PDFT, srDFT 
  Lee Huntington         : MR-EOM, pCC                                   
  Robert Izsak           : Overlap fitted RIJCOSX, COSX-SCS-MP3, EOM     
  Riya Kayal             : Wick's Theorem for AUTO-CI, AUTO-CI UHF-CCSDT 
  Emily Kempfer          : AUTO-CI RHF CISDT and CCSDT, approximate NEVPT4
  Christian Kollmar      : KDIIS, OOCD, Brueckner-CCSD(T), CCSD density, CASPT2, CASPT2-K, improved NEVPT2 
  Axel Koslowski         : Symmetry handling                             
  Simone Kossmann        : meta-GGA functionals, TD-DFT gradient, OOMP2, (MP2 Hessian; deprecated post 5.0) 
  Lucas Lang             : DCDCAS, Hyperfine gauge corrections, ICE-SOC+SSC
  Marvin Lechner         : AUTO-CI (C++ implementation), FIC-MRCC        
  Spencer Leger          : CASSCF response                               
  Dagmar Lenk            : GEPOL surface, SMD, ORCA-2-JSON               
  Dimitrios Liakos       : Extrapolation schemes; Compound Job, Property file
  Dimitrios Manganas     : Further ROCIS development; embedding schemes. LFT, Crystal Embedding 
  Dimitrios Pantazis     : SARC Basis sets                               
  Anastasios Papadopoulos: AUTO-CI, single reference methods and gradients 
  Taras Petrenko         : pre 6.0 DFT Hessian and TD-DFT gradient,  ECA, NRVS 
  Petra Pikulova         : Analytic Raman intensities                    
  Peter Pinski           : DLPNO-MP2, DLPNO-MP2 Gradient                 
  Shashank Vittal Rao    : ES-AILFT, MagRelax                            
  Christoph Reimann      : Effective Core Potentials                     
  Marius Retegan         : Local ZFS, SOC                                
  Christoph Riplinger    : Optimizer, TS searches, QM/MM, DLPNO-CCSD(T), (RO)-DLPNO pert. Triples 
  Michael Roemelt        : Original ROCIS implementation, recursive CI coupling coefficients
  Masaaki Saitow         : Open-shell DLPNO-CCSD energy and density      
  Barbara Sandhoefer     : DKH picture change effects                    
  Yorick L. A. Schmerwitz: GMF and freeze-and-release deltaSCF, NEB S-IDPP initial path                    
  Kantharuban Sivalingam : CASSCF convergence/infrastructure, NEVPT2, NEVPT3, NEVPT4(SD), FIC-MRCI and CEPA variants
  Bernardo de Souza      : ESD, SOC TD-DFT                               
  Georgi L. Stoychev     : AutoAux, RI-MP2 NMR, DLPNO-MP2 response, X2C  
  Van Anh Tran           : RI-MP2 g-tensors                              
  Willem Van den Heuvel  : Paramagnetic NMR                              
  Zikuan Wang            : NOTCH, Electric field optimization            
  Frank Wennmohs         : Technical directorship and infrastructure     
  Hang Xu                : AUTO-CI-Response properties                   
                                                                         
[FACCTs GmbH]                                                            
  Markus Bursch, Nicolas Foglia, Miquel Garcia-Rates, Ingolf Harden, Hagen Neugebauer, Anastasios Papadopoulos, 
  Christoph Riplinger, Bernardo de Souza, Georgi L. Stoychev                                                    
                                                                 
  APM, various basis sets, CI-OPT, improved COSX, DLPNO-Multilevel,           
  DOCKER, DRACO, updates on ESD, Fragmentator, GOAT, IRC, LR-CPCM, L-BFGS, MBIS, meta-GGA TD-DFT gradient, ML-optimized integration grids, 
  MM, NACMEs, nearIR, NEB, NEB-TS, NL-DFT gradient (VV10), 2- and 3-layer-ONIOM, interface openCOSMO-RS, QMMM,   
  Crystal-QMMM, RESP, rigid body optimization, SF, symmetry and pop. for TD-DFT, various functionals, SOLVATOR                                   
                                                                         
[Other institutions]                                                     
  V. Asgeirsson          : NEB                                           
  Christoph Bannwarth    : sTDA-DFT, sTD-DFT, PBEh-3c, B97-3c, D3        
  Giovanni Bistoni       : ETS/NOCV, ADLD/ADEX, COVALED                  
  Martin Brehm           : Molecular dynamics                            
  Ronald Cardenas        : ETS/NOCV                                      
  Martina Colucci        : COVALED                                       
  Sebastian Ehlert       : rSCAN, r2SCAN, r2SCAN-3c, D4, dhf basis sets  
  Marvin Friede          : D4 for Fr, Ra, Ac-Lr                          
  Lars Goerigk           : TD-DFT with DH, B97 family of functionals     
  Stefan Grimme          : VdW corrections, initial TS optimization, DFT functionals, gCP, sTDA/sTD-DF 
  Waldemar Hujo          : DFT-NL                                        
  H. Jonsson             : NEB                                           
  Holger Kruse           : gCP                                           
  Marcel Mueller         : wB97X-3c, vDZP basis set                      
  Hagen Neugebauer       : wr2SCAN, Native XTB                           
  Gianluca Regni         : ADLD/ADEX                                     
  Tobias Risthaus        : pre 6.0 range-separated hybrid DFT and stability analysis
  Lukas Wittmann         : regularized MP2, r2SCAN double-hybrids, wr2SCAN        
                                                                         
We gratefully acknowledge several colleagues who have allowed us to      
interface, adapt or use parts of their codes:                            
  Ed Valeev, F. Pavosevic, A. Kumar             : LibInt (2-el integral package), F12 methods 
  Garnet Chan, S. Sharma, J. Yang, R. Olivares  : DMRG                   
  Ulf Ekstrom                                   : XCFun DFT Library      
  Mihaly Kallay                                 : mrcc  (arbitrary order and MRCC methods)
  Frank Weinhold                                : gennbo (NPA and NBO analysis)           
  Simon Mueller                                 : openCOSMO-RS                            
  Christopher J. Cramer and Donald G. Truhlar   : smd solvation model                     
  S Lehtola, MJT Oliveira, MAL Marques          : LibXC Library                           
  Liviu Ungur et al                             : ANISO software                          


 Your calculation uses the libint2 library for the computation of 2-el integrals
 For citations please refer to: http://libint.valeyev.net

 Your ORCA version has been built with support for libXC version: 7.0.0
 For citations please refer to: https://libxc.gitlab.io

 This ORCA versions uses:
   CBLAS   interface :  Fast vector & matrix operations
   LAPACKE interface :  Fast linear algebra routines
   SCALAPACK package :  Parallel linear algebra routines
   Shared memory     :  Shared parallel matrices
   BLAS/LAPACK       :  OpenBLAS 0.3.29  USE64BITINT DYNAMIC_ARCH NO_AFFINITY Zen SINGLE_THREADED
        Core in use  :  Zen
   Copyright (c) 2011-2014, The OpenBLAS Project


  ***********************************
  * Starting time: Thu Apr 23 18:45:29 2026
  * Host name:     vmi3233575
  * Process ID:    1406523
  * Working dir.:  /root/b12_scan/jobs/quasi_planar_nn1.60
  ***********************************

NOTE: MaxCore=2500 MB was set to SCF,MP2,MDCI,CIPSI,MRCI,RASCI and CIS
      => If you want to overwrite this, your respective input block should be placed after the MaxCore statement
Your calculation utilizes the atom-pairwise dispersion correction
with the Becke-Johnson damping scheme (D3BJ)


================================================================================

----- Orbital basis set information -----
Your calculation utilizes the basis: def2-SVP
   F. Weigend and R. Ahlrichs, Phys. Chem. Chem. Phys. 7, 3297 (2005).

----- AuxJ basis set information -----
Your calculation utilizes the auxiliary basis: def2/J
   H-Rn: F. Weigend, Phys. Chem. Chem. Phys. 8, 1057 (2006).
   Fr-Lr: K. Eichkorn, F. Weigend, O. Treutler, R. Ahlrichs; Theor. Chem. Acc. 97, 119 (1997).

================================================================================
                                        WARNINGS
                       Please study these warnings very carefully!
================================================================================


WARNING: Geometry Optimization
  ===> : Switching off AutoStart
         For restart on a previous wavefunction, please use MOREAD

================================================================================
                                       INPUT FILE
================================================================================
NAME = quasi_planar_nn1.60.inp
|  1> ! BP86 def2-SVP def2/J RI Opt TightSCF D3BJ
|  2> ! SlowConv
|  3> 
|  4> %pal nprocs 8 end
|  5> %maxcore 2500
|  6> 
|  7> %geom
|  8>   MaxIter 300
|  9> end
| 10> 
| 11> * xyz 0 1
| 12> B      0.92376043      0.00000000      0.25193466
| 13> B     -0.46188022      0.80000000      0.25193466
| 14> B     -0.46188022     -0.80000000      0.25193466
| 15> B      2.92455379      0.29343415     -0.08397822
| 16> B      2.05172235      2.10465054     -0.08397822
| 17> B      0.21886721      2.93107755     -0.08397822
| 18> B     -1.71639832      2.38602080     -0.08397822
| 19> B     -2.84854200      0.72451840     -0.08397822
| 20> B     -2.64782123     -1.27599421     -0.08397822
| 21> B     -1.20815547     -2.67945495     -0.08397822
| 22> B      0.79681966     -2.82916894     -0.08397822
| 23> B      2.42895401     -1.65508334     -0.08397822
| 24> *
| 25> 
| 26>                          ****END OF INPUT****
================================================================================

                       *****************************
                       * Geometry Optimization Run *
                       *****************************

Geometry optimization settings:
Update method            Update   .... BFGS
Choice of coordinates    CoordSys .... (2022) Redundant Internals
Initial Hessian          InHess   .... Almloef's Model
Max. no of cycles        MaxIter  .... 300

Convergence Tolerances:
Energy Change            TolE     ....  5.0000e-06 Eh
Max. Gradient            TolMAXG  ....  3.0000e-04 Eh/bohr
RMS Gradient             TolRMSG  ....  1.0000e-04 Eh/bohr
Max. Displacement        TolMAXD  ....  4.0000e-03 bohr
RMS Displacement         TolRMSD  ....  2.0000e-03 bohr
Strict Convergence                .... False

------------------------------------------------------------------------------
                        ORCA OPTIMIZATION COORDINATE SETUP
------------------------------------------------------------------------------

The optimization will be done in redundant internal coordinates (2022)
Making redundant internal coordinates   ...  (2022 redundants) done
Evaluating the initial hessian          ...  (Almloef) done
Evaluating the coordinates              ...  done
Calculating the B-matrix                .... done
Calculating the G-matrix                .... done
The number of degrees of freedom        ....   75

    -----------------------------------------------------------------
                    Redundant Internal Coordinates


    -----------------------------------------------------------------
         Definition                    Initial Value    Approx d2E/dq
    -----------------------------------------------------------------
      1. B(B   1,B   0)                  1.6000         0.387554   
      2. B(B   2,B   1)                  1.6000         0.387554   
      3. B(B   2,B   0)                  1.6000         0.387554   
      4. B(B   3,B   0)                  2.0499         0.074222   
      5. B(B   4,B   3)                  2.0106         0.085766   
      6. B(B   5,B   4)                  2.0106         0.085766   
      7. B(B   6,B   1)                  2.0499         0.074222   
      8. B(B   6,B   5)                  2.0106         0.085766   
      9. B(B   7,B   6)                  2.0106         0.085766   
     10. B(B   8,B   7)                  2.0106         0.085766   
     11. B(B   9,B   8)                  2.0106         0.085766   
     12. B(B   9,B   2)                  2.0499         0.074222   
     13. B(B  10,B   9)                  2.0106         0.085766   
     14. B(B  11,B  10)                  2.0106         0.085766   
     15. B(B  11,B   3)                  2.0106         0.085766   
     16. A(B   2,B   0,B   3)          156.4697         0.289235   
     17. A(B   1,B   0,B   2)           60.0000         0.380075   
     18. A(B   1,B   0,B   3)          140.6877         0.289235   
     19. A(B   0,B   1,B   6)          156.4697         0.289235   
     20. A(B   0,B   1,B   2)           60.0000         0.380075   
     21. A(B   2,B   1,B   6)          140.6877         0.289235   
     22. A(B   0,B   2,B   9)          140.6877         0.289235   
     23. A(B   0,B   2,B   1)           60.0000         0.380075   
     24. A(B   1,B   2,B   9)          156.4697         0.289235   
     25. A(B   0,B   3,B   4)           72.8562         0.231326   
     26. A(B   4,B   3,B  11)          140.0000         0.236060   
     27. A(B   0,B   3,B  11)           67.7084         0.231326   
     28. A(B   3,B   4,B   5)          140.0000         0.236060   
     29. A(B   4,B   5,B   6)          140.0000         0.236060   
     30. A(B   5,B   6,B   7)          140.0000         0.236060   
     31. A(B   1,B   6,B   7)           72.8562         0.231326   
     32. A(B   1,B   6,B   5)           67.7084         0.231326   
     33. A(B   6,B   7,B   8)          140.0000         0.236060   
     34. A(B   7,B   8,B   9)          140.0000         0.236060   
     35. A(B   8,B   9,B  10)          140.0000         0.236060   
     36. A(B   2,B   9,B  10)           72.8562         0.231326   
     37. A(B   2,B   9,B   8)           67.7084         0.231326   
     38. A(B   9,B  10,B  11)          140.0000         0.236060   
     39. A(B   3,B  11,B  10)          140.0000         0.236060   
     40. D(B   6,B   1,B   0,B   2)   -155.7666         0.010000   
     41. D(B   2,B   1,B   0,B   3)    165.0100         0.010000   
     42. D(B   6,B   1,B   0,B   3)      9.2434         0.010000   
     43. D(B   9,B   2,B   0,B   3)      9.2434         0.010000   
     44. D(B   9,B   2,B   0,B   1)    165.0100         0.010000   
     45. D(B   1,B   2,B   0,B   3)   -155.7666         0.010000   
     46. D(B   9,B   2,B   1,B   0)   -155.7666         0.010000   
     47. D(B   9,B   2,B   1,B   6)      9.2434         0.010000   
     48. D(B   0,B   2,B   1,B   6)    165.0100         0.010000   
     49. D(B  11,B   3,B   0,B   2)    -18.5207         0.010000   
     50. D(B  11,B   3,B   0,B   1)   -164.3908         0.010000   
     51. D(B   4,B   3,B   0,B   1)      8.7671         0.010000   
     52. D(B   4,B   3,B   0,B   2)    154.6372         0.010000   
     53. D(B   5,B   4,B   3,B  11)      0.0000         0.010000   
     54. D(B   5,B   4,B   3,B   0)     -9.8743         0.010000   
     55. D(B   6,B   5,B   4,B   3)      0.0000         0.010000   
     56. D(B   7,B   6,B   5,B   4)      0.0000         0.010000   
     57. D(B   1,B   6,B   5,B   4)     10.2011         0.010000   
     58. D(B   7,B   6,B   1,B   2)      8.7671         0.010000   
     59. D(B   7,B   6,B   1,B   0)    154.6372         0.010000   
     60. D(B   5,B   6,B   1,B   2)   -164.3908         0.010000   
     61. D(B   5,B   6,B   1,B   0)    -18.5207         0.010000   
     62. D(B   8,B   7,B   6,B   5)      0.0000         0.010000   
     63. D(B   8,B   7,B   6,B   1)     -9.8743         0.010000   
     64. D(B   9,B   8,B   7,B   6)      0.0000         0.010000   
     65. D(B   2,B   9,B   8,B   7)     10.2011         0.010000   
     66. D(B  10,B   9,B   2,B   1)    154.6372         0.010000   
     67. D(B  10,B   9,B   2,B   0)      8.7671         0.010000   
     68. D(B   8,B   9,B   2,B   1)    -18.5207         0.010000   
     69. D(B  10,B   9,B   8,B   7)      0.0000         0.010000   
     70. D(B   8,B   9,B   2,B   0)   -164.3908         0.010000   
     71. D(B  11,B  10,B   9,B   8)      0.0000         0.010000   
     72. D(B  11,B  10,B   9,B   2)     -9.8743         0.010000   
     73. D(B   3,B  11,B  10,B   9)      0.0000         0.010000   
     74. D(B  10,B  11,B   3,B   4)      0.0000         0.010000   
     75. D(B  10,B  11,B   3,B   0)     10.2011         0.010000   
    -----------------------------------------------------------------

Number of atoms                         .... 12
Number of degrees of freedom            .... 75


         *************************************************************
         *                GEOMETRY OPTIMIZATION CYCLE   1            *
         *************************************************************
---------------------------------
CARTESIAN COORDINATES (ANGSTROEM)
---------------------------------
  B      0.923760    0.000000    0.251935
  B     -0.461880    0.800000    0.251935
  B     -0.461880   -0.800000    0.251935
  B      2.924554    0.293434   -0.083978
  B      2.051722    2.104651   -0.083978
  B      0.218867    2.931078   -0.083978
  B     -1.716398    2.386021   -0.083978
  B     -2.848542    0.724518   -0.083978
  B     -2.647821   -1.275994   -0.083978
  B     -1.208155   -2.679455   -0.083978
  B      0.796820   -2.829169   -0.083978
  B      2.428954   -1.655083   -0.083978

----------------------------
CARTESIAN COORDINATES (A.U.)
----------------------------
  NO LB      ZA    FRAG     MASS         X           Y           Z
   0 B     5.0000    0    10.810    1.745654    0.000000    0.476088
   1 B     5.0000    0    10.810   -0.872827    1.511781    0.476088
   2 B     5.0000    0    10.810   -0.872827   -1.511781    0.476088
   3 B     5.0000    0    10.810    5.526606    0.554510   -0.158696
   4 B     5.0000    0    10.810    3.877193    3.977213   -0.158696
   5 B     5.0000    0    10.810    0.413599    5.538934   -0.158696
   6 B     5.0000    0    10.810   -3.243523    4.508926   -0.158696
   7 B     5.0000    0    10.810   -5.382964    1.369141   -0.158696
   8 B     5.0000    0    10.810   -5.003657   -2.411280   -0.158696
   9 B     5.0000    0    10.810   -2.283083   -5.063436   -0.158696
  10 B     5.0000    0    10.810    1.505771   -5.346354   -0.158696
  11 B     5.0000    0    10.810    4.590058   -3.127654   -0.158696

--------------------------------
INTERNAL COORDINATES (ANGSTROEM)
--------------------------------
 B      0   0   0     0.000000000000     0.00000000     0.00000000
 B      1   0   0     1.600000003416     0.00000000     0.00000000
 B      2   1   0     1.600000000000    60.00000007     0.00000000
 B      1   2   3     2.049906127791   140.68769035   165.00998165
 B      4   1   2     2.010557020842    72.85622685     8.76710010
 B      5   4   1     2.010557029055   139.99999971   350.12571604
 B      6   5   4     2.010557020412   140.00000010     0.00000000
 B      7   6   5     2.010557021666   139.99999998     0.00000000
 B      8   7   6     2.010557019902   140.00000032     0.00000000
 B      9   8   7     2.010557024617   139.99999970     0.00000000
 B     10   9   8     2.010557024986   140.00000005     0.00000000
 B     11  10   9     2.010557020474   139.99999995     0.00000000

---------------------------
INTERNAL COORDINATES (A.U.)
---------------------------
 B      0   0   0     0.000000000000     0.00000000     0.00000000
 B      1   0   0     3.023561820730     0.00000000     0.00000000
 B      2   1   0     3.023561814274    60.00000007     0.00000000
 B      1   2   3     3.873761181772   140.68769035   165.00998165
 B      4   1   2     3.799402146024    72.85622685     8.76710010
 B      5   4   1     3.799402161544   139.99999971   350.12571604
 B      6   5   4     3.799402145211   140.00000010     0.00000000
 B      7   6   5     3.799402147581   139.99999998     0.00000000
 B      8   7   6     3.799402144248   140.00000032     0.00000000
 B      9   8   7     3.799402153158   139.99999970     0.00000000
 B     10   9   8     3.799402153855   140.00000005     0.00000000
 B     11  10   9     3.799402145329   139.99999995     0.00000000

---------------------
BASIS SET INFORMATION
---------------------
There are 1 groups of distinct atoms

 Group   1 Type B   : 7s4p1d contracted to 3s2p1d pattern {511/31/1}

Atom   0B    basis set group =>   1
Atom   1B    basis set group =>   1
Atom   2B    basis set group =>   1
Atom   3B    basis set group =>   1
Atom   4B    basis set group =>   1
Atom   5B    basis set group =>   1
Atom   6B    basis set group =>   1
Atom   7B    basis set group =>   1
Atom   8B    basis set group =>   1
Atom   9B    basis set group =>   1
Atom  10B    basis set group =>   1
Atom  11B    basis set group =>   1
---------------------------------
AUXILIARY/J BASIS SET INFORMATION
---------------------------------
There are 1 groups of distinct atoms

 Group   1 Type B   : 12s5p4d2f1g contracted to 6s4p3d1f1g pattern {711111/2111/211/2/1}

Atom   0B    basis set group =>   1
Atom   1B    basis set group =>   1
Atom   2B    basis set group =>   1
Atom   3B    basis set group =>   1
Atom   4B    basis set group =>   1
Atom   5B    basis set group =>   1
Atom   6B    basis set group =>   1
Atom   7B    basis set group =>   1
Atom   8B    basis set group =>   1
Atom   9B    basis set group =>   1
Atom  10B    basis set group =>   1
Atom  11B    basis set group =>   1


           ************************************************************
           *        Program running with 8 parallel MPI-processes     *
           *              working on a common directory               *
           ************************************************************
------------------------------------------------------------------------------
                             ORCA STARTUP CALCULATIONS
                           -- RI-GTO INTEGRALS CHOSEN --
------------------------------------------------------------------------------
------------------------------------------------------------------------------
                   ___                                                        
                  /   \      - P O W E R E D   B Y -                         
                 /     \                                                     
                 |  |  |   _    _      __       _____    __    __             
                 |  |  |  | |  | |    /  \     |  _  \  |  |  /  |          
                  \  \/   | |  | |   /    \    | | | |  |  | /  /          
                 / \  \   | |__| |  /  /\  \   | |_| |  |  |/  /          
                |  |  |   |  __  | /  /__\  \  |    /   |      \           
                |  |  |   | |  | | |   __   |  |    \   |  |\   \          
                \     /   | |  | | |  |  |  |  | |\  \  |  | \   \       
                 \___/    |_|  |_| |__|  |__|  |_| \__\ |__|  \__/        
                                                                              
                      - O R C A' S   B I G   F R I E N D -                    
                                      &                                       
                       - I N T E G R A L  F E E D E R -                       
                                                                              
 v1 FN, 2020, v2 2021, v3 2022-2024                                           
------------------------------------------------------------------------------


----------------------
SHARK INTEGRAL PACKAGE
----------------------

Number of atoms                             ...     12
Number of basis functions                   ...    168
Number of shells                            ...     72
Maximum angular momentum                    ...      2
Integral batch strategy                     ... SHARK/LIBINT Hybrid
RI-J (if used) integral strategy            ... SPLIT-RIJ (Revised 2003 algorithm where possible)
Printlevel                                  ...      1
Contraction scheme used                     ... SEGMENTED contraction
Prescreening option                         ... SCHWARTZ
   Thresh                                   ... 2.500e-11
   Tcut                                     ... 2.500e-12
   Tpresel                                  ... 2.500e-12 
Coulomb Range Separation                    ... NOT USED
Exchange Range Separation                   ... NOT USED
Multipole approximations                    ... NOT USED
Finite Nucleus Model                        ... NOT USED
CABS basis                                  ... NOT available
Auxiliary Coulomb fitting basis             ... AVAILABLE
   # of basis functions in Aux-J            ...    588
   # of shells in Aux-J                     ...    180
   Maximum angular momentum in Aux-J        ...      4
Auxiliary J/K fitting basis                 ... NOT available
Auxiliary Correlation fitting basis         ... NOT available
Auxiliary 'external' fitting basis          ... NOT available

Checking pre-screening integrals            ... done (  0.0 sec) Dimension = 72
   => SHARK Basis and OBASIS are compatible. Storing Pre-screening
Shell pair information
Shell pair cut-off parameter TPreSel        ...   2.5e-12
Total number of shell pairs                 ...      2628
Shell pairs after pre-screening             ...      2493
Total number of primitive shell pairs       ...     10596
Primitive shell pairs kept                  ...      7155
          la=0 lb=0:    603 shell pairs
          la=1 lb=0:    828 shell pairs
          la=1 lb=1:    300 shell pairs
          la=2 lb=0:    396 shell pairs
          la=2 lb=1:    288 shell pairs
          la=2 lb=2:     78 shell pairs

Checking whether 4 symmetric matrices of dimension 168 fit in memory
:Max Core in MB      =   2500.00
 MB in use           =      6.70
 MB left             =   2493.30
 MB needed           =      0.43
 Data fit in memory  = YES
Calculating RI/J V-Matrix + Cholesky decomp.... done (  0.0 sec)
Calculating Nuclear repulsion               ... done (  0.0 sec) ENN=    283.209675854544 Eh

Diagonalization of the overlap matrix:
Smallest eigenvalue                        ... 4.638e-04
Time for diagonalization                   ...    0.004 sec
Threshold for overlap eigenvalues          ... 1.000e-07
Number of eigenvalues below threshold      ... 0
Time for construction of square roots      ...    0.002 sec
Total time needed                          ...    0.008 sec

-------------------
DFT GRID GENERATION
-------------------

General Integration Accuracy     IntAcc      ... 4.388
Radial Grid Type                 RadialGrid  ... OptM3 with GC (2021)
Angular Grid (max. ang.)         AngularGrid ... 4 (Lebedev-302)
Angular grid pruning method      GridPruning ... 4 (adaptive)
Weight generation scheme         WeightScheme... mBecke (2022)
Basis function cutoff            BFCut       ... 1.0000e-11
Integration weight cutoff        WCut        ... 1.0000e-14
Partially contracted basis set               ... off
Rotationally invariant grid construction     ... off
Angular grids for H and He will be reduced by one unit

Total number of grid points                  ...    71985
Total number of batches                      ...     1131
Average number of points per batch           ...       63
Average number of grid points per atom       ...     5999
Grids setup in   0.8 sec
Initializing property integral containers    ... done (  0.0 sec)

SHARK setup successfully completed in   1.0 seconds

Maximum memory used throughout the entire STARTUP-calculation: 19.8 MB


           ************************************************************
           *        Program running with 8 parallel MPI-processes     *
           *              working on a common directory               *
           ************************************************************
-------------------------------------------------------------------------------
                                 ORCA GUESS
                   Start orbitals & Density for SCF / CASSCF
-------------------------------------------------------------------------------

------------
SCF SETTINGS
------------
Hamiltonian:
 Density Functional     Method          .... DFT(GTOs)
 Exchange Functional    Exchange        .... B88
   X-Alpha parameter    XAlpha          ....  0.666667
   Becke's b parameter  XBeta           ....  0.004200
 Correlation Functional Correlation     .... P86
 LDA part of GGA corr.  LDAOpt          .... PW91-LDA
 Gradients option       PostSCFGGA      .... off
   NL short-range parameter             ....  4.400000
 RI-approximation to the Coulomb term is turned on
   Number of AuxJ basis functions       .... 588


General Settings:
 Integral files         IntName         .... quasi_planar_nn1.60
 Hartree-Fock type      HFTyp           .... RHF
 Total Charge           Charge          ....    0
 Multiplicity           Mult            ....    1
 Number of Electrons    NEL             ....   60
 Basis Dimension        Dim             ....  168
 Nuclear Repulsion      ENuc            ....    283.2096758545 Eh

Convergence Acceleration:
 AO-DIIS                CNVDIIS         .... on
   Start iteration      DIISMaxIt       ....     0
   Startup error        DIISStart       ....  0.200000
   # of expansion vecs  DIISMaxEq       ....     5
   Bias factor          DIISBfac        ....   1.050
   Max. coefficient     DIISMaxC        ....  10.000
 MO-DIIS                CNVKDIIS        .... off
 Trust-Rad. Augm. Hess. CNVTRAH         .... auto
   Auto Start mean grad. ratio tolernc. ....  1.125000
   Auto Start start iteration           ....    50
   Auto Start num. interpolation iter.  ....    10
   Max. Number of Micro iterations      ....    24
   Max. Number of Macro iterations      .... Maxiter - #DIIS iter
   Number of Davidson start vectors     ....     2
   Converg. threshold    (grad. norm)   ....   1.000e-05
   Grad. Scal. Fac. for Micro threshold ....   0.100
   Minimum threshold for Micro iter.    ....   1.000e-02
   NR start threshold (gradient norm)   ....   1.000e-04
   Initial trust radius                 ....   0.400
   Minimum AH scaling param. (alpha)    ....   1.000
   Maximum AH scaling param. (alpha)    .... 1000.000
   Quad. conv. algorithm                .... NR
   White noise on init. David. guess    .... on
   Maximum white noise                  ....   0.010
   Pseudo random numbers                .... off
   Inactive MOs                         .... canonical
   Orbital update algorithm             .... Taylor
   Preconditioner                       .... Diag
   Full preconditioner red. dimension   ....   250
 SOSCF                 CNVSOSCF           .... on
   Start iteration     SOSCFMaxIt         ....   150
   Startup grad/error  SOSCFStart         ....  0.001000
   Hessian update      SOSCFHessUp        .... L-BFGS
   Autom. constraints  SOSCFAutoConstrain .... off
 Level Shifting         CNVShift        .... on
   Level shift para.    LevelShift      ....    0.2500
   Turn off err/grad.   ShiftErr        ....    0.0000
 Zerner damping         CNVZerner       .... off
 Static damping         CNVDamp         .... on
   Fraction old density DampFac         ....    0.8500
   Max. Damping (<1)    DampMax         ....    0.9800
   Min. Damping (>=0)   DampMin         ....    0.0000
   Turn off err/grad.   DampErr         ....    0.0300

SCF Procedure:
 Maximum # iterations   MaxIter         ....   125
 SCF integral mode      SCFMode         .... Direct
   Integral package                     .... SHARK and LIBINT hybrid scheme
 Reset frequency        DirectResetFreq ....    20
 Integral Threshold     Thresh          ....  2.500e-11 Eh
 Primitive CutOff       TCut            ....  2.500e-12 Eh

Convergence Tolerance:
 Convergence Check Mode ConvCheckMode   .... Total+1el-Energy
 Convergence forced     ConvForced      .... 0
 Energy Change          TolE            ....  1.000e-08 Eh
 1-El. energy change                    ....  1.000e-05 Eh
 Orbital Gradient       TolG            ....  1.000e-05
 Orbital Rotation angle TolX            ....  1.000e-05
 DIIS Error             TolErr          ....  5.000e-07

------------------------------
INITIAL GUESS: MODEL POTENTIAL
------------------------------
Loading Hartree-Fock densities                     ... done
Calculating cut-offs                               ... done
Initializing the effective Hamiltonian             ... done
Setting up the integral package (SHARK)            ... done
Starting the Coulomb interaction                   ... done (   0.0 sec)
Making the grid                                    ... done (   0.4 sec)
Mapping shells                                     ... done
Starting the XC term evaluation                    ... done (   0.0 sec)
  promolecular density results
     # of electrons  =     59.999355323
     EX              =    -45.068322510
     EC              =     -1.884192667
     EX+EC           =    -46.952515176
Transforming the Hamiltonian                       ... done (   0.0 sec)
Diagonalizing the Hamiltonian                      ... done (   0.0 sec)
Back transforming the eigenvectors                 ... done (   0.0 sec)
Now organizing SCF variables                       ... done
                      ------------------
                      INITIAL GUESS DONE (   0.5 sec)
                      ------------------
             **** ENERGY FILE WAS UPDATED (quasi_planar_nn1.60.en.tmp) ****
Finished Guess after   1.2 sec
Maximum memory used throughout the entire GUESS-calculation: 9.5 MB


           ************************************************************
           *        Program running with 8 parallel MPI-processes     *
           *              working on a common directory               *
           ************************************************************

-------------------------------------------------------------------------------------------
                                      ORCA LEAN-SCF
                              memory conserving SCF solver
-------------------------------------------------------------------------------------------

----------------------------------------D-I-I-S--------------------------------------------
Iteration    Energy (Eh)           Delta-E    RMSDP     MaxDP     DIISErr   Damp  Time(sec)
-------------------------------------------------------------------------------------------
               ***  Starting incremental Fock matrix formation  ***
    1    -296.4632659508978350     0.00e+00  1.09e-02  6.93e-02  2.20e-01  0.850   0.4
Warning: op=0 Small HOMO/LUMO gap (  -0.008) - skipping pre-diagonalization
         Will do a full diagonalization
    2    -296.7638752435532297    -3.01e-01  1.07e-02  5.85e-02  1.29e-01  0.850   0.4
                               ***Turning on AO-DIIS***
    3    -296.8707661648686553    -1.07e-01  5.93e-03  3.90e-02  4.86e-02  0.850   0.5
    4    -296.8886858553609045    -1.79e-02  3.67e-03  3.03e-02  2.11e-02  0.850   0.5
    5    -296.8977865612549749    -9.10e-03  1.72e-02  1.46e-01  4.35e-02  0.000   0.4
    6    -296.9715516658694696    -7.38e-02  6.41e-04  2.94e-03  1.03e-01  0.850   0.4
    7    -296.9834430690945055    -1.19e-02  9.31e-04  4.53e-03  9.74e-02  0.850   0.6
    8    -296.9998240427510154    -1.64e-02  1.27e-03  6.60e-03  8.83e-02  0.850   1.1
    9    -297.0202846314144836    -2.05e-02  1.59e-03  8.53e-03  7.45e-02  0.850   0.5
   10    -297.0409349419246610    -2.07e-02  1.53e-03  7.91e-03  5.74e-02  0.850   0.4
   11    -297.0555875611111105    -1.47e-02  1.30e-03  6.61e-03  4.39e-02  0.850   0.3
   12    -297.0651528654223057    -9.57e-03  1.04e-03  5.34e-03  3.37e-02  0.850   0.4
   13    -297.0714612046641605    -6.31e-03  8.46e-04  4.30e-03  2.56e-02  0.850   0.3
   14    -297.0756980855632037    -4.24e-03  4.65e-03  2.31e-02  1.92e-02  0.000   0.3
   15    -297.0860908622233865    -1.04e-02  7.66e-04  5.69e-03  1.31e-02  0.000   0.4
   16    -297.0872647464880174    -1.17e-03  4.73e-04  2.75e-03  6.98e-03  0.000   0.5
   17    -297.0876185394171216    -3.54e-04  2.91e-04  2.26e-03  4.60e-03  0.000   0.5
   18    -297.0877834687412360    -1.65e-04  1.34e-04  7.53e-04  2.57e-03  0.000   0.5
   19    -297.0878344438549448    -5.10e-05  1.18e-04  7.24e-04  1.62e-03  0.000   0.3
                              *** Initializing SOSCF ***
---------------------------------------S-O-S-C-F--------------------------------------
Iteration    Energy (Eh)           Delta-E    RMSDP     MaxDP     MaxGrad    Time(sec)
--------------------------------------------------------------------------------------
   20    -297.0878561081619864    -2.17e-05  9.76e-05  8.51e-04  8.85e-04     0.5
               *** Restarting incremental Fock matrix formation ***
   21    -297.0878636943022002    -7.59e-06  2.90e-04  1.68e-03  5.46e-04     0.5
   22    -297.0878143877923776     4.93e-05  2.36e-04  1.38e-03  1.42e-03     0.3
   23    -297.0878672109616900    -5.28e-05  1.85e-04  1.06e-03  2.34e-04     0.3
   24    -297.0878507354060503     1.65e-05  1.38e-04  7.25e-04  9.67e-04     0.6
   25    -297.0878684741222742    -1.77e-05  3.61e-05  3.67e-04  3.54e-05     0.3
   26    -297.0878681941919695     2.80e-07  2.33e-05  2.38e-04  8.02e-05     0.3
   27    -297.0878685557687504    -3.62e-07  7.38e-06  5.42e-05  4.86e-06     0.4
   28    -297.0878685567503226    -9.82e-10  3.30e-06  2.31e-05  7.61e-06     0.4
                 **** Energy Check signals convergence ****

               *****************************************************
               *                     SUCCESS                       *
               *           SCF CONVERGED AFTER  28 CYCLES          *
               *****************************************************

             **** ENERGY FILE WAS UPDATED (quasi_planar_nn1.60.en.tmp) ****

----------------
TOTAL SCF ENERGY
----------------

Total Energy       :       -297.08786856056076 Eh           -8084.17189 eV

Components:
Nuclear Repulsion  :        283.20967585454412 Eh            7706.52707 eV
Electronic Energy  :       -580.29754441510488 Eh          -15790.69897 eV
One Electron Energy:       -954.66634967340235 Eh          -25977.79206 eV
Two Electron Energy:        374.36880525829747 Eh           10187.09309 eV

Virial components:
Potential Energy   :       -587.19424444794743 Eh          -15978.36772 eV
Kinetic Energy     :        290.10637588738666 Eh            7894.19582 eV
Virial Ratio       :          2.02406528519692

DFT components:
N(Alpha)           :       29.999999804570 electrons
N(Beta)            :       29.999999804570 electrons
N(Total)           :       59.999999609141 electrons
E(X)               :      -45.254168613992 Eh       
E(C)               :       -1.918362096881 Eh       
E(XC)              :      -47.172530710873 Eh       

---------------
SCF CONVERGENCE
---------------

  Last Energy change         ...    9.8157e-10  Tolerance :   1.0000e-08
  Last MAX-Density change    ...    2.3075e-05  Tolerance :   1.0000e-07
  Last RMS-Density change    ...    3.2969e-06  Tolerance :   5.0000e-09
  Last DIIS Error            ...    8.8535e-04  Tolerance :   5.0000e-07
  Last Orbital Gradient      ...    7.6122e-06  Tolerance :   1.0000e-05
  Last Orbital Rotation      ...    2.8042e-05  Tolerance :   1.0000e-05


----------------
ORBITAL ENERGIES
----------------

  NO   OCC          E(Eh)            E(eV) 
   0   2.0000      -6.663060      -181.3111 
   1   2.0000      -6.663056      -181.3110 
   2   2.0000      -6.663030      -181.3103 
   3   2.0000      -6.655895      -181.1161 
   4   2.0000      -6.655891      -181.1160 
   5   2.0000      -6.655861      -181.1152 
   6   2.0000      -6.640505      -180.6973 
   7   2.0000      -6.640501      -180.6972 
   8   2.0000      -6.640456      -180.6960 
   9   2.0000      -6.585439      -179.1989 
  10   2.0000      -6.584684      -179.1784 
  11   2.0000      -6.584679      -179.1782 
  12   2.0000      -0.603740       -16.4286 
  13   2.0000      -0.501811       -13.6550 
  14   2.0000      -0.501810       -13.6549 
  15   2.0000      -0.486345       -13.2341 
  16   2.0000      -0.436925       -11.8893 
  17   2.0000      -0.436924       -11.8893 
  18   2.0000      -0.366789        -9.9808 
  19   2.0000      -0.362377        -9.8608 
  20   2.0000      -0.311647        -8.4804 
  21   2.0000      -0.311646        -8.4803 
  22   2.0000      -0.290370        -7.9014 
  23   2.0000      -0.290368        -7.9013 
  24   2.0000      -0.283487        -7.7141 
  25   2.0000      -0.269524        -7.3341 
  26   2.0000      -0.221795        -6.0353 
  27   2.0000      -0.221794        -6.0353 
  28   2.0000      -0.212946        -5.7946 
  29   2.0000      -0.212945        -5.7945 
  30   0.0000      -0.183283        -4.9874 
  31   0.0000      -0.166385        -4.5276 
  32   0.0000      -0.166383        -4.5275 
  33   0.0000      -0.157761        -4.2929 
  34   0.0000      -0.157760        -4.2929 
  35   0.0000      -0.130321        -3.5462 
  36   0.0000      -0.123706        -3.3662 
  37   0.0000      -0.115758        -3.1499 
  38   0.0000      -0.115756        -3.1499 
  39   0.0000      -0.090871        -2.4727 
  40   0.0000      -0.085073        -2.3150 
*Only the first 10 virtual orbitals were printed.

                    ********************************
                    * MULLIKEN POPULATION ANALYSIS *
                    ********************************

-----------------------
MULLIKEN ATOMIC CHARGES
-----------------------
   0 B :   -0.151641
   1 B :   -0.151681
   2 B :   -0.151616
   3 B :    0.029302
   4 B :    0.057423
   5 B :    0.064925
   6 B :    0.029302
   7 B :    0.057428
   8 B :    0.064905
   9 B :    0.029277
  10 B :    0.057443
  11 B :    0.064932
Sum of atomic charges:    0.0000000

--------------------------------
MULLIKEN REDUCED ORBITAL CHARGES
--------------------------------
  0 B s       :     3.037615  s :     3.037615
      pz      :     0.606272  p :     2.071009
      px      :     0.648502
      py      :     0.816235
      dz2     :     0.003881  d :     0.043018
      dxz     :     0.008456
      dyz     :     0.002984
      dx2y2   :     0.016792
      dxy     :     0.010904

  1 B s       :     3.037637  s :     3.037637
      pz      :     0.606278  p :     2.071027
      px      :     0.775923
      py      :     0.688825
      dz2     :     0.003881  d :     0.043017
      dxz     :     0.004356
      dyz     :     0.007085
      dx2y2   :     0.012965
      dxy     :     0.014730

  2 B s       :     3.037626  s :     3.037626
      pz      :     0.606268  p :     2.070973
      px      :     0.772659
      py      :     0.692046
      dz2     :     0.003881  d :     0.043017
      dxz     :     0.004348
      dyz     :     0.007092
      dx2y2   :     0.011786
      dxy     :     0.015909

  3 B s       :     3.258895  s :     3.258895
      pz      :     0.456763  p :     1.692104
      px      :     0.593399
      py      :     0.641943
      dz2     :     0.001964  d :     0.019699
      dxz     :     0.002558
      dyz     :     0.001214
      dx2y2   :     0.007983
      dxy     :     0.005980

  4 B s       :     3.340936  s :     3.340936
      pz      :     0.459780  p :     1.584326
      px      :     0.592045
      py      :     0.532502
      dz2     :     0.001785  d :     0.017314
      dxz     :     0.001372
      dyz     :     0.001632
      dx2y2   :     0.006184
      dxy     :     0.006341

  5 B s       :     3.307958  s :     3.307958
      pz      :     0.453988  p :     1.609244
      px      :     0.673948
      py      :     0.481308
      dz2     :     0.001818  d :     0.017872
      dxz     :     0.001435
      dyz     :     0.001802
      dx2y2   :     0.006490
      dxy     :     0.006327

  6 B s       :     3.258893  s :     3.258893
      pz      :     0.456760  p :     1.692106
      px      :     0.620918
      py      :     0.614428
      dz2     :     0.001964  d :     0.019699
      dxz     :     0.001725
      dyz     :     0.002047
      dx2y2   :     0.005843
      dxy     :     0.008120

  7 B s       :     3.340931  s :     3.340931
      pz      :     0.459784  p :     1.584327
      px      :     0.426586
      py      :     0.697957
      dz2     :     0.001785  d :     0.017314
      dxz     :     0.001589
      dyz     :     0.001415
      dx2y2   :     0.006676
      dxy     :     0.005849

  8 B s       :     3.307967  s :     3.307967
      pz      :     0.453993  p :     1.609256
      px      :     0.491001
      py      :     0.664263
      dz2     :     0.001818  d :     0.017872
      dxz     :     0.001907
      dyz     :     0.001330
      dx2y2   :     0.007070
      dxy     :     0.005747

  9 B s       :     3.258901  s :     3.258901
      pz      :     0.456767  p :     1.692124
      px      :     0.638701
      py      :     0.596656
      dz2     :     0.001964  d :     0.019699
      dxz     :     0.001374
      dyz     :     0.002397
      dx2y2   :     0.007119
      dxy     :     0.006844

 10 B s       :     3.340927  s :     3.340927
      pz      :     0.459780  p :     1.584316
      px      :     0.668183
      py      :     0.456353
      dz2     :     0.001785  d :     0.017314
      dxz     :     0.001545
      dyz     :     0.001460
      dx2y2   :     0.005927
      dxy     :     0.006597

 11 B s       :     3.307959  s :     3.307959
      pz      :     0.453985  p :     1.609236
      px      :     0.567940
      py      :     0.587310
      dz2     :     0.001818  d :     0.017872
      dxz     :     0.001513
      dyz     :     0.001724
      dx2y2   :     0.005666
      dxy     :     0.007152



                     *******************************
                     * LOEWDIN POPULATION ANALYSIS *
                     *******************************

----------------------
LOEWDIN ATOMIC CHARGES
----------------------
   0 B :   -0.077891
   1 B :   -0.077888
   2 B :   -0.077874
   3 B :   -0.042965
   4 B :    0.081432
   5 B :    0.039420
   6 B :   -0.042967
   7 B :    0.081431
   8 B :    0.039416
   9 B :   -0.042981
  10 B :    0.081441
  11 B :    0.039425

-------------------------------
LOEWDIN REDUCED ORBITAL CHARGES
-------------------------------
  0 B s       :     2.696850  s :     2.696850
      pz      :     0.584177  p :     2.275097
      px      :     0.866769
      py      :     0.824151
      dz2     :     0.012243  d :     0.105944
      dxz     :     0.016612
      dyz     :     0.005342
      dx2y2   :     0.042591
      dxy     :     0.029156

  1 B s       :     2.696850  s :     2.696850
      pz      :     0.584178  p :     2.275094
      px      :     0.835322
      py      :     0.855594
      dz2     :     0.012243  d :     0.105944
      dxz     :     0.008169
      dyz     :     0.013785
      dx2y2   :     0.032878
      dxy     :     0.038868

  2 B s       :     2.696848  s :     2.696848
      pz      :     0.584172  p :     2.275082
      px      :     0.834278
      py      :     0.856631
      dz2     :     0.012243  d :     0.105944
      dxz     :     0.008150
      dyz     :     0.013804
      dx2y2   :     0.032151
      dxy     :     0.039596

  3 B s       :     2.975845  s :     2.975845
      pz      :     0.473455  p :     2.021303
      px      :     0.725588
      py      :     0.822259
      dz2     :     0.005456  d :     0.045818
      dxz     :     0.004229
      dyz     :     0.002100
      dx2y2   :     0.019725
      dxy     :     0.014307

  4 B s       :     3.083617  s :     3.083617
      pz      :     0.460926  p :     1.800298
      px      :     0.698661
      py      :     0.640711
      dz2     :     0.004082  d :     0.034653
      dxz     :     0.001974
      dyz     :     0.002456
      dx2y2   :     0.014433
      dxy     :     0.011709

  5 B s       :     3.051810  s :     3.051810
      pz      :     0.460120  p :     1.871030
      px      :     0.843575
      py      :     0.567334
      dz2     :     0.004620  d :     0.037740
      dxz     :     0.002376
      dyz     :     0.002605
      dx2y2   :     0.013243
      dxy     :     0.014896

  6 B s       :     2.975845  s :     2.975845
      pz      :     0.473453  p :     2.021305
      px      :     0.782444
      py      :     0.765407
      dz2     :     0.005456  d :     0.045818
      dxz     :     0.002928
      dyz     :     0.003401
      dx2y2   :     0.013857
      dxy     :     0.020175

  7 B s       :     3.083615  s :     3.083615
      pz      :     0.460929  p :     1.800301
      px      :     0.488625
      py      :     0.850747
      dz2     :     0.004082  d :     0.034653
      dxz     :     0.002185
      dyz     :     0.002245
      dx2y2   :     0.013614
      dxy     :     0.012528

  8 B s       :     3.051809  s :     3.051809
      pz      :     0.460125  p :     1.871034
      px      :     0.591106
      py      :     0.819803
      dz2     :     0.004620  d :     0.037740
      dxz     :     0.002893
      dyz     :     0.002088
      dx2y2   :     0.016542
      dxy     :     0.011597

  9 B s       :     2.975847  s :     2.975847
      pz      :     0.473461  p :     2.021317
      px      :     0.813743
      py      :     0.734114
      dz2     :     0.005456  d :     0.045817
      dxz     :     0.002337
      dyz     :     0.003992
      dx2y2   :     0.017466
      dxy     :     0.016566

 10 B s       :     3.083614  s :     3.083614
      pz      :     0.460927  p :     1.800292
      px      :     0.821772
      py      :     0.517593
      dz2     :     0.004081  d :     0.034653
      dxz     :     0.002485
      dyz     :     0.001944
      dx2y2   :     0.011166
      dxy     :     0.014976

 11 B s       :     3.051810  s :     3.051810
      pz      :     0.460117  p :     1.871025
      px      :     0.681682
      py      :     0.729225
      dz2     :     0.004620  d :     0.037740
      dxz     :     0.002202
      dyz     :     0.002779
      dx2y2   :     0.012423
      dxy     :     0.015715



                      *****************************
                      * MAYER POPULATION ANALYSIS *
                      *****************************

  NA   - Mulliken gross atomic population
  ZA   - Total nuclear charge
  QA   - Mulliken gross atomic charge
  VA   - Mayer's total valence
  BVA  - Mayer's bonded valence
  FA   - Mayer's free valence

  ATOM       NA         ZA         QA         VA         BVA        FA
  0 B      5.1516     5.0000    -0.1516     3.7021     3.7021     0.0000
  1 B      5.1517     5.0000    -0.1517     3.7021     3.7021     0.0000
  2 B      5.1516     5.0000    -0.1516     3.7021     3.7021     0.0000
  3 B      4.9707     5.0000     0.0293     3.2515     3.2515    -0.0000
  4 B      4.9426     5.0000     0.0574     3.1272     3.1272    -0.0000
  5 B      4.9351     5.0000     0.0649     3.1801     3.1801    -0.0000
  6 B      4.9707     5.0000     0.0293     3.2515     3.2515     0.0000
  7 B      4.9426     5.0000     0.0574     3.1272     3.1272     0.0000
  8 B      4.9351     5.0000     0.0649     3.1802     3.1802     0.0000
  9 B      4.9707     5.0000     0.0293     3.2515     3.2515    -0.0000
 10 B      4.9426     5.0000     0.0574     3.1272     3.1272     0.0000
 11 B      4.9351     5.0000     0.0649     3.1801     3.1801    -0.0000

  Mayer bond orders larger than 0.100000
B(  0-B ,  1-B ) :   0.8952 B(  0-B ,  2-B ) :   0.8952 B(  0-B ,  3-B ) :   0.6206 
B(  0-B ,  4-B ) :   0.4224 B(  0-B , 10-B ) :   0.1568 B(  0-B , 11-B ) :   0.5048 
B(  1-B ,  2-B ) :   0.8952 B(  1-B ,  4-B ) :   0.1568 B(  1-B ,  5-B ) :   0.5048 
B(  1-B ,  6-B ) :   0.6206 B(  1-B ,  7-B ) :   0.4224 B(  2-B ,  7-B ) :   0.1568 
B(  2-B ,  8-B ) :   0.5048 B(  2-B ,  9-B ) :   0.6206 B(  2-B , 10-B ) :   0.4223 
B(  3-B ,  4-B ) :   1.0340 B(  3-B ,  7-B ) :   0.1233 B(  3-B ,  8-B ) :   0.1154 
B(  3-B , 11-B ) :   1.1005 B(  4-B ,  5-B ) :   0.9726 B(  4-B ,  8-B ) :   0.1394 
B(  4-B ,  9-B ) :   0.1233 B(  5-B ,  6-B ) :   1.1005 B(  5-B ,  9-B ) :   0.1154 
B(  5-B , 10-B ) :   0.1394 B(  6-B ,  7-B ) :   1.0340 B(  6-B , 10-B ) :   0.1233 
B(  6-B , 11-B ) :   0.1154 B(  7-B ,  8-B ) :   0.9726 B(  7-B , 11-B ) :   0.1394 
B(  8-B ,  9-B ) :   1.1005 B(  9-B , 10-B ) :   1.0340 B( 10-B , 11-B ) :   0.9726 


-------
TIMINGS
-------

Total SCF time: 0 days 0 hours 0 min 13 sec 

Total time                  ....      13.566 sec
Sum of individual times     ....      12.923 sec  ( 95.3%)

SCF preparation             ....       0.581 sec  (  4.3%)
Fock matrix formation       ....      10.100 sec  ( 74.4%)
  Startup                   ....       0.019 sec  (  0.2% of F)
  Split-RI-J                ....       3.074 sec  ( 30.4% of F)
  XC integration            ....       6.562 sec  ( 65.0% of F)
    XC Preparation          ....       0.000 sec  (  0.0% of XC)
    Basis function eval.    ....       1.438 sec  ( 21.9% of XC)
    Density eval.           ....       0.900 sec  ( 13.7% of XC)
    XC-Functional eval.     ....       0.174 sec  (  2.7% of XC)
    XC-Potential eval.      ....       1.060 sec  ( 16.1% of XC)
Diagonalization             ....       0.000 sec  (  0.0%)
Density matrix formation    ....       0.416 sec  (  3.1%)
Total Energy calculation    ....       0.197 sec  (  1.5%)
Population analysis         ....       0.070 sec  (  0.5%)
Orbital Transformation      ....       0.109 sec  (  0.8%)
Orbital Orthonormalization  ....       0.000 sec  (  0.0%)
DIIS solution               ....       1.124 sec  (  8.3%)
SOSCF solution              ....       0.326 sec  (  2.4%)
Finished LeanSCF after  13.6 sec

Maximum memory used throughout the entire LEANSCF-calculation: 9.9 MB


-------------------------------------------------------------------------------
                          DFT DISPERSION CORRECTION                            
                                                                               
                              DFTD3 V3.1  Rev 1                                
                          USING Becke-Johnson damping                          
-------------------------------------------------------------------------------
The BP86 functional is recognized
Active option DFTDOPT                   ...         4   

molecular C6(AA) [au] = 7992.465746 


            DFT-D V3
 parameters
 s6 scaling factor         :     1.0000 
 a1 scaling factor         :     0.3946 
 s8 scaling factor         :     3.2822 
 a2 scaling factor         :     4.8516 
 ad hoc parameters k1-k3   :    16.0000     1.3333    -4.0000 

 Edisp/kcal,au: -28.357313508035  -0.045190250754 
 E6   /kcal   :  -8.291975284 
 E8   /kcal   : -20.065338224 
 % E8         :  70.758953307 

-------------------------   ----------------
Dispersion correction           -0.045190251
-------------------------   ----------------


-------------------------   --------------------
FINAL SINGLE POINT ENERGY      -297.133058811314
-------------------------   --------------------



           ************************************************************
           *        Program running with 8 parallel MPI-processes     *
           *              working on a common directory               *
           ************************************************************
------------------------------------------------------------------------------
                         ORCA SCF GRADIENT CALCULATION
------------------------------------------------------------------------------

Nuc. rep. gradient        (SHARK) ... done (  0.0 sec)
HCore & Overlap gradient  (SHARK) ... done (  0.0 sec)
Split-RIJ-J gradient      (SHARK) ... done (  0.4 sec)
XC gradient                       ... done (  1.0 sec)
Dispersion correction             ... done (  0.1 sec)

-------------------
DISPERSION GRADIENT
-------------------

   1   B   :    0.004384938   -0.000364227   -0.000634418
   2   B   :   -0.001877040    0.003979581   -0.000634418
   3   B   :   -0.002507898   -0.003615355   -0.000634418
   4   B   :   -0.003461758   -0.001094774    0.000374500
   5   B   :   -0.001651186   -0.000740926    0.000049749
   6   B   :   -0.000410568   -0.002905948    0.000210169
   7   B   :    0.002678981   -0.002450583    0.000374500
   8   B   :    0.001467254   -0.001059506    0.000049749
   9   B   :    0.002721909    0.001097411    0.000210169
  10   B   :    0.000782777    0.003545357    0.000374500
  11   B   :    0.000183932    0.001800432    0.000049749
  12   B   :   -0.002311341    0.001808537    0.000210169

Difference to translation invariance:
           :    0.0000000000    0.0000000000   -0.0000000000

Difference to rotation invariance:
           :    0.0000000000   -0.0000000000    0.0000000000

Norm of the Dispersion gradient    ...    0.0116215975
RMS gradient                       ...    0.0019369329
MAX gradient                       ...    0.0043849382

------------------
CARTESIAN GRADIENT
------------------

   1   B   :   -0.115032498   -0.000511694    0.015704483
   2   B   :    0.057958775   -0.099368601    0.015702838
   3   B   :    0.057080017    0.099888709    0.015700535
   4   B   :    0.090270438    0.013759566   -0.007304501
   5   B   :    0.043434697    0.063627889   -0.003963515
   6   B   :    0.023584443    0.076322737   -0.004436359
   7   B   :   -0.057049752    0.071308336   -0.007300919
   8   B   :   -0.076827584    0.005793859   -0.003954830
   9   B   :   -0.077879247   -0.017745136   -0.004441849
  10   B   :   -0.033232304   -0.085052088   -0.007305367
  11   B   :    0.033382684   -0.069452866   -0.003965403
  12   B   :    0.054310331   -0.058570711   -0.004435115

Difference to translation invariance:
           :    0.0000000000    0.0000000000    0.0000000000

Difference to rotation invariance:
           :    0.0000500069    0.0000251647   -0.0000325811

Norm of the Cartesian gradient     ...    0.3204287102
RMS gradient                       ...    0.0534047850
MAX gradient                       ...    0.1150324976

-------
TIMINGS
-------

Total SCF gradient time     ....        1.478 sec

Densities                   ....       0.001 sec  (  0.0%)
One electron gradient       ....       0.045 sec  (  3.1%)
RI-J Coulomb gradient       ....       0.377 sec  ( 25.5%)
XC gradient                 ....       0.978 sec  ( 66.1%)

Maximum memory used throughout the entire SCFGRAD-calculation: 29.5 MB
------------------------------------------------------------------------------
                         ORCA GEOMETRY RELAXATION STEP
------------------------------------------------------------------------------

Reading the OPT-File                    .... done
Getting information on internals        .... done
Copying old internal coords+grads       .... done
Making the new internal coordinates     .... (2022 redundants) done
Validating the new internal coordinates .... (2022 redundants) done
Calculating the B-matrix                .... done
Calculating the G,G- and P matrices     .... done
Transforming gradient to internals      .... done
Projecting the internal gradient        .... done
Number of atoms                         ....  12
Number of internal coordinates          ....  75
Current Energy                          ....  -297.133058811 Eh
Current gradient norm                   ....     0.320428710 Eh/bohr
Maximum allowed component of the step   ....  0.300
Current trust radius                    ....  0.300
Evaluating the initial hessian          ....  (Almloef) done
Projecting the Hessian                  .... done
Forming the augmented Hessian           .... done
Diagonalizing the augmented Hessian     .... done
Last element of RFO vector              ....  0.759670815
Lowest eigenvalues of augmented Hessian:
 -0.262691880  0.010061108  0.010061108  0.010081163  0.010307050
Length of the computed step             ....  0.856038959
Warning: the length of the step is outside the trust region - taking restricted step instead
The input lambda is                     ....     0.009061
   iter:   5  x=   -0.117732  g=   68.578836 f(x)=     4.575307
   iter:  10  x=   -0.874350  g=    0.330652 f(x)=     0.047225
   iter:  15  x=   -0.926572  g=    0.175363 f(x)=    -0.000000
The output lambda is                    ....    -0.926572 (15 iterations)
The final length of the internal step   ....  0.300000000
Converting the step to Cartesian space:
 Initial RMS(Int)=    0.0346410162
Transforming coordinates:
 Iter   0:  RMS(Cart)=    0.0644340104 RMS(Int)=    0.0345718555
done
Storing new coordinates                 .... done

                                .--------------------.
          ----------------------|Geometry convergence|-------------------------
          Item                value                   Tolerance       Converged
          ---------------------------------------------------------------------
          RMS gradient        0.0356868205            0.0001000000      NO
          MAX gradient        0.0950557158            0.0003000000      NO
          RMS step            0.0346410162            0.0020000000      NO
          MAX step            0.0933258980            0.0040000000      NO
          -------------------------------------------------------------------------
          ........................................................
          Max(Bonds)      0.0494      Max(Angles)    2.25
          Max(Dihed)        0.28      Max(Improp)    0.00
          ---------------------------------------------------------------------

The optimization has not yet converged - more geometry cycles are needed


    ---------------------------------------------------------------------------
                         Redundant Internal Coordinates
                            (Angstroem and degrees)

        Definition                    Value    dE/dq     Step     New-Value
    ----------------------------------------------------------------------------
     1. B(B   1,B   0)                1.6000 -0.024895  0.0097    1.6097   
     2. B(B   2,B   1)                1.6000 -0.024895  0.0097    1.6097   
     3. B(B   2,B   0)                1.6000 -0.024898  0.0097    1.6097   
     4. B(B   3,B   0)                2.0499  0.073764 -0.0397    2.0102   
     5. B(B   4,B   3)                2.0106  0.090023 -0.0467    1.9638   
     6. B(B   5,B   4)                2.0106  0.067374 -0.0348    1.9757   
     7. B(B   6,B   1)                2.0499  0.073770 -0.0397    2.0102   
     8. B(B   6,B   5)                2.0106  0.095056 -0.0494    1.9612   
     9. B(B   7,B   6)                2.0106  0.090032 -0.0467    1.9638   
    10. B(B   8,B   7)                2.0106  0.067375 -0.0348    1.9757   
    11. B(B   9,B   8)                2.0106  0.095044 -0.0494    1.9612   
    12. B(B   9,B   2)                2.0499  0.073778 -0.0397    2.0102   
    13. B(B  10,B   9)                2.0106  0.090027 -0.0467    1.9638   
    14. B(B  11,B  10)                2.0106  0.067388 -0.0348    1.9757   
    15. B(B  11,B   3)                2.0106  0.095055 -0.0494    1.9612   
    16. A(B   2,B   0,B   3)          156.47 -0.003656    0.19    156.66   
    17. A(B   1,B   0,B   2)           60.00  0.000001   -0.00     60.00   
    18. A(B   1,B   0,B   3)          140.69  0.002842   -0.15    140.54   
    19. A(B   0,B   1,B   6)          156.47 -0.003654    0.19    156.66   
    20. A(B   0,B   1,B   2)           60.00 -0.000001    0.00     60.00   
    21. A(B   2,B   1,B   6)          140.69  0.002842   -0.15    140.54   
    22. A(B   0,B   2,B   9)          140.69  0.002841   -0.15    140.54   
    23. A(B   0,B   2,B   1)           60.00  0.000000   -0.00     60.00   
    24. A(B   1,B   2,B   9)          156.47 -0.003655    0.19    156.66   
    25. A(B   0,B   3,B   4)           72.86  0.020781   -1.05     71.81   
    26. A(B   4,B   3,B  11)          140.00  0.044582   -2.25    137.75   
    27. A(B   0,B   3,B  11)           67.71  0.023693   -1.20     66.51   
    28. A(B   3,B   4,B   5)          140.00 -0.022446    1.14    141.14   
    29. A(B   4,B   5,B   6)          140.00 -0.022136    1.12    141.12   
    30. A(B   5,B   6,B   7)          140.00  0.044579   -2.25    137.75   
    31. A(B   1,B   6,B   7)           72.86  0.020779   -1.05     71.81   
    32. A(B   1,B   6,B   5)           67.71  0.023693   -1.20     66.51   
    33. A(B   6,B   7,B   8)          140.00 -0.022448    1.14    141.14   
    34. A(B   7,B   8,B   9)          140.00 -0.022129    1.12    141.12   
    35. A(B   8,B   9,B  10)          140.00  0.044588   -2.25    137.75   
    36. A(B   2,B   9,B  10)           72.86  0.020789   -1.05     71.81   
    37. A(B   2,B   9,B   8)           67.71  0.023691   -1.20     66.51   
    38. A(B   9,B  10,B  11)          140.00 -0.022464    1.14    141.14   
    39. A(B   3,B  11,B  10)          140.00 -0.022125    1.11    141.11   
    40. D(B   6,B   1,B   0,B   2)   -155.77  0.000820   -0.04   -155.81   
    41. D(B   2,B   1,B   0,B   3)    165.01 -0.003665    0.20    165.21   
    42. D(B   6,B   1,B   0,B   3)      9.24 -0.002845    0.15      9.40   
    43. D(B   9,B   2,B   0,B   3)      9.24 -0.002844    0.15      9.40   
    44. D(B   9,B   2,B   0,B   1)    165.01 -0.003664    0.20    165.21   
    45. D(B   1,B   2,B   0,B   3)   -155.77  0.000820   -0.04   -155.81   
    46. D(B   9,B   2,B   1,B   0)   -155.77  0.000820   -0.04   -155.81   
    47. D(B   9,B   2,B   1,B   6)      9.24 -0.002844    0.15      9.39   
    48. D(B   0,B   2,B   1,B   6)    165.01 -0.003664    0.20    165.21   
    49. D(B  11,B   3,B   0,B   2)    -18.52 -0.002974    0.14    -18.38   
    50. D(B  11,B   3,B   0,B   1)   -164.39  0.000613   -0.05   -164.44   
    51. D(B   4,B   3,B   0,B   1)      8.77  0.005433   -0.27      8.49   
    52. D(B   4,B   3,B   0,B   2)    154.64  0.001846   -0.08    154.55   
    53. D(B   5,B   4,B   3,B  11)      0.00  0.004408   -0.25     -0.25   
    54. D(B   5,B   4,B   3,B   0)     -9.87  0.000462   -0.02     -9.90   
    55. D(B   6,B   5,B   4,B   3)      0.00 -0.000355    0.02      0.02   
    56. D(B   7,B   6,B   5,B   4)      0.00 -0.004053    0.23      0.23   
    57. D(B   1,B   6,B   5,B   4)     10.20 -0.000568    0.03     10.23   
    58. D(B   7,B   6,B   1,B   2)      8.77  0.005434   -0.27      8.49   
    59. D(B   7,B   6,B   1,B   0)    154.64  0.001847   -0.08    154.55   
    60. D(B   5,B   6,B   1,B   2)   -164.39  0.000615   -0.05   -164.44   
    61. D(B   5,B   6,B   1,B   0)    -18.52 -0.002972    0.14    -18.38   
    62. D(B   8,B   7,B   6,B   5)      0.00  0.004405   -0.25     -0.25   
    63. D(B   8,B   7,B   6,B   1)     -9.87  0.000458   -0.02     -9.90   
    64. D(B   9,B   8,B   7,B   6)      0.00 -0.000351    0.02      0.02   
    65. D(B   2,B   9,B   8,B   7)     10.20 -0.000568    0.03     10.23   
    66. D(B  10,B   9,B   2,B   1)    154.64  0.001850   -0.08    154.55   
    67. D(B  10,B   9,B   2,B   0)      8.77  0.005437   -0.28      8.49   
    68. D(B   8,B   9,B   2,B   1)    -18.52 -0.002974    0.14    -18.38   
    69. D(B  10,B   9,B   8,B   7)      0.00 -0.004051    0.23      0.23   
    70. D(B   8,B   9,B   2,B   0)   -164.39  0.000614   -0.05   -164.44   
    71. D(B  11,B  10,B   9,B   8)      0.00  0.004404   -0.25     -0.25   
    72. D(B  11,B  10,B   9,B   2)     -9.87  0.000461   -0.02     -9.90   
    73. D(B   3,B  11,B  10,B   9)      0.00 -0.000357    0.02      0.02   
    74. D(B  10,B  11,B   3,B   4)      0.00 -0.004050    0.23      0.23   
    75. D(B  10,B  11,B   3,B   0)     10.20 -0.000565    0.03     10.23   
    ----------------------------------------------------------------------------

Geometry step timings:
Preparation and reading OPT file:      0.000 s ( 2.168 %)
Internal coordinates            :      0.000 s ( 1.485 %)
B/P matrices and projection     :      0.001 s (28.736 %)
Hessian update/contruction      :      0.001 s (11.545 %)
Making the step                 :      0.002 s (38.875 %)
Converting the step to Cartesian:      0.000 s ( 3.282 %)
Storing new data                :      0.000 s ( 1.836 %)
Checking convergence            :      0.000 s ( 1.192 %)
Final printing                  :      0.001 s (10.822 %)
Total time                      :      0.005 s

Time for energy+gradient        :     19.331 s
Time for complete geometry iter :     20.214 s

         *************************************************************
         *                GEOMETRY OPTIMIZATION CYCLE   2            *
         *************************************************************
---------------------------------
CARTESIAN COORDINATES (ANGSTROEM)
---------------------------------
  B      0.929253   -0.001490    0.243607
  B     -0.463339    0.805496    0.243607
  B     -0.465915   -0.804016    0.243608
  B      2.891044    0.289206   -0.082626
  B      2.003264    2.041071   -0.080411
  B      0.202028    2.853413   -0.080569
  B     -1.695981    2.359108   -0.082626
  B     -2.769252    0.714343   -0.080415
  B     -2.572151   -1.251745   -0.080569
  B     -1.195060   -2.648318   -0.082623
  B      0.765989   -2.755397   -0.080413
  B      2.370120   -1.601671   -0.080572

----------------------------
CARTESIAN COORDINATES (A.U.)
----------------------------
  NO LB      ZA    FRAG     MASS         X           Y           Z
   0 B     5.0000    0    10.810    1.756034   -0.002816    0.460351
   1 B     5.0000    0    10.810   -0.875584    1.522168    0.460351
   2 B     5.0000    0    10.810   -0.880452   -1.519371    0.460352
   3 B     5.0000    0    10.810    5.463282    0.546520   -0.156140
   4 B     5.0000    0    10.810    3.785620    3.857065   -0.151955
   5 B     5.0000    0    10.810    0.381777    5.392169   -0.152253
   6 B     5.0000    0    10.810   -3.204940    4.458069   -0.156141
   7 B     5.0000    0    10.810   -5.233129    1.349912   -0.151962
   8 B     5.0000    0    10.810   -4.860661   -2.365455   -0.152253
   9 B     5.0000    0    10.810   -2.258335   -5.004596   -0.156135
  10 B     5.0000    0    10.810    1.447509   -5.206946   -0.151958
  11 B     5.0000    0    10.810    4.478878   -3.026719   -0.152258

--------------------------------
INTERNAL COORDINATES (ANGSTROEM)
--------------------------------
 B      0   0   0     0.000000000000     0.00000000     0.00000000
 B      1   0   0     1.609515210136     0.00000000     0.00000000
 B      2   1   0     1.609515021029    60.00004487     0.00000000
 B      1   2   3     2.009864867043   140.53487406   165.20445982
 B      4   1   2     1.963973141897    71.79670109     8.49332022
 B      5   4   1     1.975942756278   141.14910696   350.09583660
 B      6   5   4     1.961320650114   141.12755469     0.00000000
 B      7   6   5     1.963968164077   137.72323503     0.22932525
 B      8   7   6     1.975942357502   141.14918149   359.75246176
 B      9   8   7     1.961326649930   141.12721795     0.00000000
 B     10   9   8     1.963970981777   137.72279533     0.22919300
 B      4   1   2     1.961320992652    66.49334634   195.56163865

---------------------------
INTERNAL COORDINATES (A.U.)
---------------------------
 B      0   0   0     0.000000000000     0.00000000     0.00000000
 B      1   0   0     3.041542955537     0.00000000     0.00000000
 B      2   1   0     3.041542598177    60.00004487     0.00000000
 B      1   2   3     3.798094164901   140.53487406   165.20445982
 B      4   1   2     3.711371372562    71.79670109     8.49332022
 B      5   4   1     3.733990665670   141.14910696   350.09583660
 B      6   5   4     3.706358889519   141.12755469     0.00000000
 B      7   6   5     3.711361965846   137.72323503     0.22932525
 B      8   7   6     3.733989912094   141.14918149   359.75246176
 B      9   8   7     3.706370227529   141.12721795     0.00000000
 B     10   9   8     3.711367290527   137.72279533     0.22919300
 B      4   1   2     3.706359536823    66.49334634   195.56163865



           ************************************************************
           *        Program running with 8 parallel MPI-processes     *
           *              working on a common directory               *
           ************************************************************
------------------------------------------------------------------------------
                   ___                                                        
                  /   \      - P O W E R E D   B Y -                         
                 /     \                                                     
                 |  |  |   _    _      __       _____    __    __             
                 |  |  |  | |  | |    /  \     |  _  \  |  |  /  |          
                  \  \/   | |  | |   /    \    | | | |  |  | /  /          
                 / \  \   | |__| |  /  /\  \   | |_| |  |  |/  /          
                |  |  |   |  __  | /  /__\  \  |    /   |      \           
                |  |  |   | |  | | |   __   |  |    \   |  |\   \          
                \     /   | |  | | |  |  |  |  | |\  \  |  | \   \       
                 \___/    |_|  |_| |__|  |__|  |_| \__\ |__|  \__/        
                                                                              
                      - O R C A' S   B I G   F R I E N D -                    
                                      &                                       
                       - I N T E G R A L  F E E D E R -                       
                                                                              
 v1 FN, 2020, v2 2021, v3 2022-2024                                           
------------------------------------------------------------------------------


----------------------
SHARK INTEGRAL PACKAGE
----------------------

Number of atoms                             ...     12
Number of basis functions                   ...    168
Number of shells                            ...     72
Maximum angular momentum                    ...      2
Integral batch strategy                     ... SHARK/LIBINT Hybrid
[...]
      dxy     :     0.014814

  6 B s       :     3.365184  s :     3.365184
      pz      :     0.438874  p :     1.860596
      px      :     0.741857
      py      :     0.679865
      dz2     :     0.003886  d :     0.044707
      dxz     :     0.007211
      dyz     :     0.005559
      dx2y2   :     0.014207
      dxy     :     0.013843

  7 B s       :     3.194244  s :     3.194244
      pz      :     0.439810  p :     1.571472
      px      :     0.563451
      py      :     0.568211
      dz2     :     0.003408  d :     0.047760
      dxz     :     0.006811
      dyz     :     0.006864
      dx2y2   :     0.015445
      dxy     :     0.015232

  8 B s       :     3.365164  s :     3.365164
      pz      :     0.439077  p :     1.860549
      px      :     0.618666
      py      :     0.802806
      dz2     :     0.003892  d :     0.044720
      dxz     :     0.009582
      dyz     :     0.003197
      dx2y2   :     0.014800
      dxy     :     0.013249

  9 B s       :     3.365161  s :     3.365161
      pz      :     0.438859  p :     1.860522
      px      :     0.813109
      py      :     0.608554
      dz2     :     0.003867  d :     0.044716
      dxz     :     0.003058
      dyz     :     0.009703
      dx2y2   :     0.014709
      dxy     :     0.013380

 10 B s       :     3.193857  s :     3.193857
      pz      :     0.438983  p :     1.572238
      px      :     0.569208
      py      :     0.564047
      dz2     :     0.003384  d :     0.047715
      dxz     :     0.006826
      dyz     :     0.006786
      dx2y2   :     0.015431
      dxy     :     0.015288

 11 B s       :     3.365327  s :     3.365327
      pz      :     0.437964  p :     1.860451
      px      :     0.665552
      py      :     0.756936
      dz2     :     0.003856  d :     0.044709
      dxz     :     0.005909
      dyz     :     0.006814
      dx2y2   :     0.014049
      dxy     :     0.014082



                     *******************************
                     * LOEWDIN POPULATION ANALYSIS *
                     *******************************

----------------------
LOEWDIN ATOMIC CHARGES
----------------------
   0 B :   -0.058479
   1 B :   -0.058400
   2 B :   -0.058544
   3 B :   -0.000385
   4 B :    0.059188
   5 B :   -0.000369
   6 B :   -0.000272
   7 B :    0.059139
   8 B :   -0.000342
   9 B :   -0.000419
  10 B :    0.059259
  11 B :   -0.000375

-------------------------------
LOEWDIN REDUCED ORBITAL CHARGES
-------------------------------
  0 B s       :     2.558591  s :     2.558591
      pz      :     0.654013  p :     2.277860
      px      :     0.838414
      py      :     0.785434
      dz2     :     0.021081  d :     0.222028
      dxz     :     0.025620
      dyz     :     0.025290
      dx2y2   :     0.080629
      dxy     :     0.069408

  1 B s       :     2.558602  s :     2.558602
      pz      :     0.654242  p :     2.277773
      px      :     0.786929
      py      :     0.836602
      dz2     :     0.021117  d :     0.222025
      dxz     :     0.025429
      dyz     :     0.025708
      dx2y2   :     0.078703
      dxy     :     0.071068

  2 B s       :     2.558515  s :     2.558515
      pz      :     0.654363  p :     2.277913
      px      :     0.809964
      py      :     0.813586
      dz2     :     0.021126  d :     0.222115
      dxz     :     0.025537
      dyz     :     0.025604
      dx2y2   :     0.065509
      dxy     :     0.084340

  3 B s       :     2.788053  s :     2.788053
      pz      :     0.473143  p :     2.104216
      px      :     0.671061
      py      :     0.960012
      dz2     :     0.011300  d :     0.108116
      dxz     :     0.018030
      dyz     :     0.009066
      dx2y2   :     0.031858
      dxy     :     0.037861

  4 B s       :     2.735511  s :     2.735511
      pz      :     0.462041  p :     2.075560
      px      :     0.815006
      py      :     0.798513
      dz2     :     0.011445  d :     0.129741
      dxz     :     0.014903
      dyz     :     0.014697
      dx2y2   :     0.047239
      dxy     :     0.041457

  5 B s       :     2.788075  s :     2.788075
      pz      :     0.473999  p :     2.104199
      px      :     0.965322
      py      :     0.664878
      dz2     :     0.011279  d :     0.108095
      dxz     :     0.008687
      dyz     :     0.018528
      dx2y2   :     0.031949
      dxy     :     0.037652

  6 B s       :     2.788095  s :     2.788095
      pz      :     0.474374  p :     2.104078
      px      :     0.840211
      py      :     0.789492
      dz2     :     0.011306  d :     0.108099
      dxz     :     0.015317
      dyz     :     0.011970
      dx2y2   :     0.035931
      dxy     :     0.033576

  7 B s       :     2.735427  s :     2.735427
      pz      :     0.463064  p :     2.075635
      px      :     0.673910
      py      :     0.938661
      dz2     :     0.011434  d :     0.129799
      dxz     :     0.013133
      dyz     :     0.016697
      dx2y2   :     0.042552
      dxy     :     0.045983

  8 B s       :     2.788002  s :     2.788002
      pz      :     0.474541  p :     2.104217
      px      :     0.706444
      py      :     0.923233
      dz2     :     0.011315  d :     0.108123
      dxz     :     0.019590
      dyz     :     0.007718
      dx2y2   :     0.037044
      dxy     :     0.032456

  9 B s       :     2.787967  s :     2.787967
      pz      :     0.474226  p :     2.104336
      px      :     0.934203
      py      :     0.695908
      dz2     :     0.011285  d :     0.108116
      dxz     :     0.007488
      dyz     :     0.019749
      dx2y2   :     0.036628
      dxy     :     0.032966

 10 B s       :     2.735680  s :     2.735680
      pz      :     0.462095  p :     2.075399
      px      :     0.930809
      py      :     0.682495
      dz2     :     0.011438  d :     0.129662
      dxz     :     0.016454
      dyz     :     0.013098
      dx2y2   :     0.043166
      dxy     :     0.045506

 11 B s       :     2.788040  s :     2.788040
      pz      :     0.473180  p :     2.104239
      px      :     0.773753
      py      :     0.857306
      dz2     :     0.011296  d :     0.108096
      dxz     :     0.012552
      dyz     :     0.014541
      dx2y2   :     0.035382
      dxy     :     0.034325



                      *****************************
                      * MAYER POPULATION ANALYSIS *
                      *****************************

  NA   - Mulliken gross atomic population
  ZA   - Total nuclear charge
  QA   - Mulliken gross atomic charge
  VA   - Mayer's total valence
  BVA  - Mayer's bonded valence
  FA   - Mayer's free valence

  ATOM       NA         ZA         QA         VA         BVA        FA
  0 B      4.6455     5.0000     0.3545     2.8165     2.8165    -0.0000
  1 B      4.6469     5.0000     0.3531     2.8179     2.8179    -0.0000
  2 B      4.6447     5.0000     0.3553     2.8153     2.8153    -0.0000
  3 B      5.2704     5.0000    -0.2704     3.2780     3.2780    -0.0000
  4 B      4.8132     5.0000     0.1868     3.3148     3.3148    -0.0000
  5 B      5.2702     5.0000    -0.2702     3.2780     3.2780    -0.0000
  6 B      5.2705     5.0000    -0.2705     3.2784     3.2784    -0.0000
  7 B      4.8135     5.0000     0.1865     3.3150     3.3150    -0.0000
  8 B      5.2704     5.0000    -0.2704     3.2782     3.2782     0.0000
  9 B      5.2704     5.0000    -0.2704     3.2787     3.2787     0.0000
 10 B      4.8138     5.0000     0.1862     3.3146     3.3146     0.0000
 11 B      5.2705     5.0000    -0.2705     3.2789     3.2789     0.0000

  Mayer bond orders larger than 0.100000
B(  0-B ,  1-B ) :   0.4777 B(  0-B ,  2-B ) :   0.4774 B(  0-B ,  3-B ) :   0.5069 
B(  0-B ,  4-B ) :   0.4398 B(  0-B , 10-B ) :   0.4392 B(  0-B , 11-B ) :   0.5070 
B(  1-B ,  2-B ) :   0.4777 B(  1-B ,  4-B ) :   0.4399 B(  1-B ,  5-B ) :   0.5072 
B(  1-B ,  6-B ) :   0.5073 B(  1-B ,  7-B ) :   0.4402 B(  2-B ,  7-B ) :   0.4393 
B(  2-B ,  8-B ) :   0.5066 B(  2-B ,  9-B ) :   0.5066 B(  2-B , 10-B ) :   0.4392 
B(  3-B ,  4-B ) :   1.0798 B(  3-B , 11-B ) :   1.4825 B(  4-B ,  5-B ) :   1.0796 
B(  5-B ,  6-B ) :   1.4822 B(  6-B ,  7-B ) :   1.0799 B(  7-B ,  8-B ) :   1.0802 
B(  8-B ,  9-B ) :   1.4827 B(  9-B , 10-B ) :   1.0807 B( 10-B , 11-B ) :   1.0804 


-------
TIMINGS
-------

Total SCF time: 0 days 0 hours 0 min 4 sec 

Total time                  ....       4.890 sec
Sum of individual times     ....       4.052 sec  ( 82.9%)

SCF preparation             ....       0.665 sec  ( 13.6%)
Fock matrix formation       ....       2.801 sec  ( 57.3%)
  Startup                   ....       0.021 sec  (  0.8% of F)
  Split-RI-J                ....       1.064 sec  ( 38.0% of F)
  XC integration            ....       2.176 sec  ( 77.7% of F)
    XC Preparation          ....       0.000 sec  (  0.0% of XC)
    Basis function eval.    ....       0.442 sec  ( 20.3% of XC)
    Density eval.           ....       0.317 sec  ( 14.6% of XC)
    XC-Functional eval.     ....       0.046 sec  (  2.1% of XC)
    XC-Potential eval.      ....       0.354 sec  ( 16.3% of XC)
Diagonalization             ....       0.000 sec  (  0.0%)
Density matrix formation    ....       0.035 sec  (  0.7%)
Total Energy calculation    ....       0.038 sec  (  0.8%)
Population analysis         ....       0.211 sec  (  4.3%)
Orbital Transformation      ....       0.082 sec  (  1.7%)
Orbital Orthonormalization  ....       0.000 sec  (  0.0%)
DIIS solution               ....       0.058 sec  (  1.2%)
SOSCF solution              ....       0.163 sec  (  3.3%)
Finished LeanSCF after   5.1 sec

Maximum memory used throughout the entire LEANSCF-calculation: 12.3 MB


-------------------------------------------------------------------------------
                          DFT DISPERSION CORRECTION                            
                                                                               
                              DFTD3 V3.1  Rev 1                                
                          USING Becke-Johnson damping                          
-------------------------------------------------------------------------------
The BP86 functional is recognized
Active option DFTDOPT                   ...         4   

molecular C6(AA) [au] = 4351.204048 


            DFT-D V3
 parameters
 s6 scaling factor         :     1.0000 
 a1 scaling factor         :     0.3946 
 s8 scaling factor         :     3.2822 
 a2 scaling factor         :     4.8516 
 ad hoc parameters k1-k3   :    16.0000     1.3333    -4.0000 

 Edisp/kcal,au: -20.736186770207  -0.033045213523 
 E6   /kcal   :  -5.976686133 
 E8   /kcal   : -14.759500637 
 % E8         :  71.177506264 

-------------------------   ----------------
Dispersion correction           -0.033045214
-------------------------   ----------------


-------------------------   --------------------
FINAL SINGLE POINT ENERGY      -297.750639665505
-------------------------   --------------------

                                *** OPTIMIZATION RUN DONE ***



           ************************************************************
           *        Program running with 8 parallel MPI-processes     *
           *              working on a common directory               *
           ************************************************************

------------------------------------------------------------------------------
                              ORCA PROPERTY CALCULATIONS
------------------------------------------------------------------------------

GBWName                                 ... quasi_planar_nn1.60.gbw
Number of atoms                         ...     12
Number of basis functions               ...    168
Max core memory                         ...   2500 MB

Electric properties:
Dipole moment                           ... YES
Quadrupole moment                       ...  NO
Static polarizability (Dipole/Dipole)   ...  NO
Static polarizability (Dipole/Quad.)    ...  NO
Static polarizability (Quad./Quad.)     ...  NO
Static polarizability (Velocity)        ...  NO
Static hyperpolarizability              ...  NO

Atomic electric properties:
Dipole moment                           ...  NO
Quadrupole moment                       ...  NO
Static polarizability                   ...  NO

Choice of electric origin               ... Center of mass
Position of electric origin             ...    -0.000000     0.000000     0.000000

General magnetic properties:
Magnetizability                         ...  NO

EPR properties:
g-Tensor (aka g-matrix)                 ...  NO
Zero-Field splitting spin-orbit         ...  NO
Zero-field splitting spin-spin          ...  NO
Hyperfine couplings                     ...  NO (   0 nuclei)
Quadrupole couplings                    ...  NO (   0 nuclei)
Contact density                         ...  NO (   0 nuclei)

NMR properties:
Chemical shifts                         ...  NO (   0 nuclei)
Spin-rotation constants                 ...  NO (   0 nuclei)
Spin-spin couplings                     ...  NO (   0 nuclei,    0 pairs)

Choice of magnetic origin               ... GIAO
Position of magnetic origin             ...     0.000000     0.000000     0.000000

Properties with geometric perturbations:
SCF Hessian                             ...  NO
IR spectrum                             ...  NO
VCD spectrum                            ...  NO
X-ray spectroscopy properties:
SCF XES/XAS/RIXS spectra                ...  NO

SCF SOC stabilization energy            ...  NO
Diagonal Born-Oppenheimer correction    ...  NO

-------------
DIPOLE MOMENT
-------------

Method             : SCF
Type of density    : Electron Density
Multiplicity       :   1
Irrep              :   0
Energy             :  -297.7175944519813129 Eh
Basis              : AO
                                X                 Y                 Z
Electronic contribution:     -0.002937991       0.000791878       0.775836510
Nuclear contribution   :     -0.000000000       0.000000000       0.000000000
                        -----------------------------------------
Total Dipole Moment    :     -0.002937991       0.000791878       0.775836510
                        -----------------------------------------
Magnitude (a.u.)       :      0.775842477
Magnitude (Debye)      :      1.972034857



--------------------
Rotational spectrum 
--------------------
 
Rotational constants in cm-1:             0.058823             0.058803             0.030097 
Rotational constants in MHz :          1763.468944          1762.860576           902.273002 

Dipole components along the rotational axes: 
x,y,z [a.u.] :     0.000417     0.000063     0.775842 
x,y,z [Debye]:     0.001061     0.000160     1.972035 

 

Dipole moment calculation done in   0.0 sec 

Maximum memory used throughout the entire PROP-calculation: 9.9 MB

--------------------------------
SUGGESTED CITATIONS FOR THIS RUN
--------------------------------

Below you find a list of papers that are relevant to this ORCA run
We neither can nor want to force you to cite these papers, but we appreciate if you do
You receive ORCA, which is the product of decades of hard work by many enthusiastic individuals, for free
The only thing we kindly ask in return is that you cite our papers,
We deeply appreciate it, if you show your appreciation for ORCA by not just citing the generic ORCA reference.

Please note that relegating all ORCA citations to the supporting information does *not* help us.
SI sections are not indexed - citations you put there will not count into any citation statistics
But we need these citations in order to attract the funding resources that allow us to do what we are doing

Therefore, if you are a happy ORCA user, please consider citing a few of the papers listed below in the main body of your paper

In addition to the list printed below, the program has created the file quasi_planar_nn1.60.bibtex that contains the list in bibtex format
You can import this file easily into all common literature databanks and citation aid programs

It goes without saying that in many instances, there are alternative algorithms to achieve similar
results as the ones you have gotten from ORCA. It is, of course, also the case that in some instances
ORCA just re-implements algorithms worked out by others. We are fully aware of that and we are also
fully appreciative of our colleagues work. Hence this citation list should not be read as indicating
that the listed papers, which are focused on our own work, are the only ones worth citing. It simply
meant to make it easier for users to cite ORCA specific papers. It is not a substitute for doing your
own literature research and citing the relevant literature in a scientifically appropriate manner.

List of essential papers. We consider these as the minimum necessary citations

  1. Neese, F.
     Software update: the ORCA program system, version 6.0
     WIRES Comput. Molec. Sci. 2025 15(1), e70019
     doi.org/10.1002/wcms.70019

List of papers to cite with high priority. The work reported in these papers was absolutely
necessary for this run to complete.
Our perspective: the developers of density functionals and basis sets usually get cited in chemistry papers
Good! But without the algorithms to do something with them, the functionals or basis sets would not do anything.
Hence, in our opinion, the algorithm design and method developments papers are equally worthy of getting cited

  1. Neese, F.
     An improvement of the resolution of the identity approximation for the formation of the Coulomb matrix
     J. Comp. Chem. 2003 24(14), 1740-1747
     doi.org/10.1002/jcc.10318
  2. Grimme, S.; Antony, J.; Ehrlich, S.; Krieg, H.
     A consistent and accurate ab initio parametrization of density functional dispersion correction (DFT-D) for the 94 elements H-Pu
     J. Chem. Phys. 2010 132 , 154104
     doi.org/10.1063/1.3382344
  3. Grimme, S.; Ehrlich, S.; Goerigk, L.
     Effect of the damping function in dispersion corrected density functional theory
     J. Comput. Chem. 2011 32(7), 1456-1465
     doi.org/10.1002/jcc.21759
  4. Neese, F.
     The SHARK Integral Generation and Digestion System
     J. Comp. Chem. 2022 44(3), 381
     doi.org/10.1002/jcc.26942

List of suggested additional citations. These are papers that are important in the 'surrounding' of 
of this run, or papers that preceded the highly important papers. If you like your results we are grateful for a citation.

  1. Neese, F.
     The ORCA program system
     WIRES Comput. Molec. Sci. 2012 2(1), 73-78
     doi.org/10.1002/wcms.81
  2. Neese, F.
     Software update: the ORCA program system, version 4.0
     WIRES Comput. Molec. Sci. 2018 8(1), 1-6
     doi.org/10.1002/wcms.1327
  3. Neese, F.; Wennmohs, F.; Becker, U.; Riplinger, C.
     The ORCA quantum chemistry program package
     J. Chem. Phys. 2020 152(22), 224108
     doi.org/10.1063/5.0004608
  4. Neese, F.
     Software update: The ORCA program system—Version 5.0
     WIRES Comput. Molec. Sci. 2022 12(1), e1606
     doi.org/10.1002/wcms.1606

List of optional additional citations

  1. Neese, F.
     Approximate second-order SCF convergence for spin unrestricted wavefunctions
     Chem. Phys. Lett. 2000 325(1-3), 93-98
     doi.org/10.1016/s0009-2614(00)00662-x

Timings for individual modules:

Sum of individual times          ...      640.434 sec (=  10.674 min)
Startup calculation              ...       88.646 sec (=   1.477 min)  13.8 %
SCF iterations                   ...      427.113 sec (=   7.119 min)  66.7 %
Property calculations            ...        0.831 sec (=   0.014 min)   0.1 %
SCF Gradient evaluation          ...      122.515 sec (=   2.042 min)  19.1 %
Geometry relaxation              ...        1.329 sec (=   0.022 min)   0.2 %
                             ****ORCA TERMINATED NORMALLY****
TOTAL RUN TIME: 0 days 0 hours 11 minutes 23 seconds 167 msec
