
                                 *****************
                                 * O   R   C   A *
                                 *****************

                                            #,                                       
                                            ###                                      
                                            ####                                     
                                            #####                                    
                                            ######                                   
                                           ########,                                 
                                     ,,################,,,,,                         
                               ,,#################################,,                 
                          ,,##########################################,,             
                       ,#########################################, ''#####,          
                    ,#############################################,,   '####,        
                  ,##################################################,,,,####,       
                ,###########''''           ''''###############################       
              ,#####''   ,,,,##########,,,,          '''####'''          '####       
            ,##' ,,,,###########################,,,                        '##       
           ' ,,###''''                  '''############,,,                           
         ,,##''                                '''############,,,,        ,,,,,,###''
      ,#''                                            '''#######################'''  
     '                                                          ''''####''''         
             ,#######,   #######,   ,#######,      ##                                
            ,#'     '#,  ##    ##  ,#'     '#,    #''#        ,####,    ,#,          
            ##       ##  ##   ,#'  ##            #'  '#       #'       ,# #          
            ##       ##  #######   ##           ,######,      #####,      #          
            '#,     ,#'  ##    ##  '#,     ,#' ,#      #,     #,   #      #          
             '#######'   ##     ##  '#######'  #'      '#     '####' #    #          



                #########################################################
                #                        -***-                          #
                #          Department of theory and spectroscopy        #
                #                                                       #
                #                      Frank Neese                      #
                #                                                       #
                #     Directorship, Architecture, Infrastructure        #
                #                    SHARK, DRIVERS                     #
                #        Core code/Algorithms in most modules           #
                #                                                       #
                #        Max Planck Institute fuer Kohlenforschung      #
                #                Kaiser Wilhelm Platz 1                 #
                #                 D-45470 Muelheim/Ruhr                 #
                #                      Germany                          #
                #                                                       #
                #                  All rights reserved                  #
                #                        -***-                          #
                #########################################################


                         Program Version 6.1.1  -  RELEASE   -
                                (GIT: $487d211c$)
                          ($2025-11-21 10:33:24 +0100$)
                                                                         
                                  - NO-DMRG VERSION -                    
                                                                         


 With contributions from (in alphabetic order):
[Max-Planck-Institut fuer Kohlenforschung]                               
  Daniel Aravena         : Magnetic Suceptibility                        
  Michael Atanasov       : Ab Initio Ligand Field Theory (pilot matlab implementation)
  Alexander A. Auer      : GIAO ZORA, VPT2 properties, NMR spectrum      
  Ute Becker             : All parallelization in ORCA, NUMFREQ, NUMCALC 
  Giovanni Bistoni       : ED, misc. LED, open-shell LED, HFLD           
  Dmytro Bykov           : pre 5.0 version of the SCF Hessian            
  Marcos Casanova-Páez   : Triplet and SCS-CIS(D). UHF-(DLPNO)-IP/EA/STEOM-CCSD. UHF-CVS-IP/STEOM-CCSD   
  Vijay G. Chilkuri      : MRCI spin determinant printing, contributions to CSF-ICE 
  Pauline Colinet        : FMM embedding                                 
  Dipayan Datta          : RHF DLPNO-CCSD density                        
  Achintya Kumar Dutta   : EOM-CC, STEOM-CC                              
  Nicolas Foglia         : Exact transition moments, OPA infrastructure, MCD improvements    
  Dmitry Ganyushin       : Spin-Orbit,Spin-Spin,Magnetic field MRCI      
  Miquel Garcia-Rates    : C-PCM and meta-GGA Hessian, CCSD/C-PCM, Gaussian charge scheme 
  Tiago L. C. Gouveia    : GS-ROHF, GS-ROCIS                             
  Yang Guo               : DLPNO-NEVPT2, F12-NEVPT2, CIM, IAO-localization        
  Andreas Hansen         : Spin unrestricted coupled pair/coupled cluster methods 
  Ingolf Harden          : AUTO-CI MPn and infrastructure                
  Benjamin Helmich-Paris : MC-RPA, TRAH-(SCF,CASSCF), AVAS, COSX integrals, SCF dyn. polar., MC-PDFT, srDFT 
  Lee Huntington         : MR-EOM, pCC                                   
  Robert Izsak           : Overlap fitted RIJCOSX, COSX-SCS-MP3, EOM     
  Riya Kayal             : Wick's Theorem for AUTO-CI, AUTO-CI UHF-CCSDT 
  Emily Kempfer          : AUTO-CI RHF CISDT and CCSDT, approximate NEVPT4
  Christian Kollmar      : KDIIS, OOCD, Brueckner-CCSD(T), CCSD density, CASPT2, CASPT2-K, improved NEVPT2 
  Axel Koslowski         : Symmetry handling                             
  Simone Kossmann        : meta-GGA functionals, TD-DFT gradient, OOMP2, (MP2 Hessian; deprecated post 5.0) 
  Lucas Lang             : DCDCAS, Hyperfine gauge corrections, ICE-SOC+SSC
  Marvin Lechner         : AUTO-CI (C++ implementation), FIC-MRCC        
  Spencer Leger          : CASSCF response                               
  Dagmar Lenk            : GEPOL surface, SMD, ORCA-2-JSON               
  Dimitrios Liakos       : Extrapolation schemes; Compound Job, Property file
  Dimitrios Manganas     : Further ROCIS development; embedding schemes. LFT, Crystal Embedding 
  Dimitrios Pantazis     : SARC Basis sets                               
  Anastasios Papadopoulos: AUTO-CI, single reference methods and gradients 
  Taras Petrenko         : pre 6.0 DFT Hessian and TD-DFT gradient,  ECA, NRVS 
  Petra Pikulova         : Analytic Raman intensities                    
  Peter Pinski           : DLPNO-MP2, DLPNO-MP2 Gradient                 
  Shashank Vittal Rao    : ES-AILFT, MagRelax                            
  Christoph Reimann      : Effective Core Potentials                     
  Marius Retegan         : Local ZFS, SOC                                
  Christoph Riplinger    : Optimizer, TS searches, QM/MM, DLPNO-CCSD(T), (RO)-DLPNO pert. Triples 
  Michael Roemelt        : Original ROCIS implementation, recursive CI coupling coefficients
  Masaaki Saitow         : Open-shell DLPNO-CCSD energy and density      
  Barbara Sandhoefer     : DKH picture change effects                    
  Yorick L. A. Schmerwitz: GMF and freeze-and-release deltaSCF, NEB S-IDPP initial path                    
  Kantharuban Sivalingam : CASSCF convergence/infrastructure, NEVPT2, NEVPT3, NEVPT4(SD), FIC-MRCI and CEPA variants
  Bernardo de Souza      : ESD, SOC TD-DFT                               
  Georgi L. Stoychev     : AutoAux, RI-MP2 NMR, DLPNO-MP2 response, X2C  
  Van Anh Tran           : RI-MP2 g-tensors                              
  Willem Van den Heuvel  : Paramagnetic NMR                              
  Zikuan Wang            : NOTCH, Electric field optimization            
  Frank Wennmohs         : Technical directorship and infrastructure     
  Hang Xu                : AUTO-CI-Response properties                   
                                                                         
[FACCTs GmbH]                                                            
  Markus Bursch, Nicolas Foglia, Miquel Garcia-Rates, Ingolf Harden, Hagen Neugebauer, Anastasios Papadopoulos, 
  Christoph Riplinger, Bernardo de Souza, Georgi L. Stoychev                                                    
                                                                 
  APM, various basis sets, CI-OPT, improved COSX, DLPNO-Multilevel,           
  DOCKER, DRACO, updates on ESD, Fragmentator, GOAT, IRC, LR-CPCM, L-BFGS, MBIS, meta-GGA TD-DFT gradient, ML-optimized integration grids, 
  MM, NACMEs, nearIR, NEB, NEB-TS, NL-DFT gradient (VV10), 2- and 3-layer-ONIOM, interface openCOSMO-RS, QMMM,   
  Crystal-QMMM, RESP, rigid body optimization, SF, symmetry and pop. for TD-DFT, various functionals, SOLVATOR                                   
                                                                         
[Other institutions]                                                     
  V. Asgeirsson          : NEB                                           
  Christoph Bannwarth    : sTDA-DFT, sTD-DFT, PBEh-3c, B97-3c, D3        
  Giovanni Bistoni       : ETS/NOCV, ADLD/ADEX, COVALED                  
  Martin Brehm           : Molecular dynamics                            
  Ronald Cardenas        : ETS/NOCV                                      
  Martina Colucci        : COVALED                                       
  Sebastian Ehlert       : rSCAN, r2SCAN, r2SCAN-3c, D4, dhf basis sets  
  Marvin Friede          : D4 for Fr, Ra, Ac-Lr                          
  Lars Goerigk           : TD-DFT with DH, B97 family of functionals     
  Stefan Grimme          : VdW corrections, initial TS optimization, DFT functionals, gCP, sTDA/sTD-DF 
  Waldemar Hujo          : DFT-NL                                        
  H. Jonsson             : NEB                                           
  Holger Kruse           : gCP                                           
  Marcel Mueller         : wB97X-3c, vDZP basis set                      
  Hagen Neugebauer       : wr2SCAN, Native XTB                           
  Gianluca Regni         : ADLD/ADEX                                     
  Tobias Risthaus        : pre 6.0 range-separated hybrid DFT and stability analysis
  Lukas Wittmann         : regularized MP2, r2SCAN double-hybrids, wr2SCAN        
                                                                         
We gratefully acknowledge several colleagues who have allowed us to      
interface, adapt or use parts of their codes:                            
  Ed Valeev, F. Pavosevic, A. Kumar             : LibInt (2-el integral package), F12 methods 
  Garnet Chan, S. Sharma, J. Yang, R. Olivares  : DMRG                   
  Ulf Ekstrom                                   : XCFun DFT Library      
  Mihaly Kallay                                 : mrcc  (arbitrary order and MRCC methods)
  Frank Weinhold                                : gennbo (NPA and NBO analysis)           
  Simon Mueller                                 : openCOSMO-RS                            
  Christopher J. Cramer and Donald G. Truhlar   : smd solvation model                     
  S Lehtola, MJT Oliveira, MAL Marques          : LibXC Library                           
  Liviu Ungur et al                             : ANISO software                          


 Your calculation uses the libint2 library for the computation of 2-el integrals
 For citations please refer to: http://libint.valeyev.net

 Your ORCA version has been built with support for libXC version: 7.0.0
 For citations please refer to: https://libxc.gitlab.io

 This ORCA versions uses:
   CBLAS   interface :  Fast vector & matrix operations
   LAPACKE interface :  Fast linear algebra routines
   SCALAPACK package :  Parallel linear algebra routines
   Shared memory     :  Shared parallel matrices
   BLAS/LAPACK       :  OpenBLAS 0.3.29  USE64BITINT DYNAMIC_ARCH NO_AFFINITY Zen SINGLE_THREADED
        Core in use  :  Zen
   Copyright (c) 2011-2014, The OpenBLAS Project


  ***********************************
  * Starting time: Fri Apr 24 09:02:58 2026
  * Host name:     vmi3233575
  * Process ID:    1806789
  * Working dir.:  /root/b12_scan/jobs_refined/rank01_quasi_planar_nn1.70_perturb0
  ***********************************

NOTE: MaxCore=2500 MB was set to SCF,MP2,MDCI,CIPSI,MRCI,RASCI and CIS
      => If you want to overwrite this, your respective input block should be placed after the MaxCore statement
Your calculation utilizes the atom-pairwise dispersion correction
with the Becke-Johnson damping scheme (D3BJ)


================================================================================

----- Orbital basis set information -----
Your calculation utilizes the basis: def2-TZVP
   F. Weigend and R. Ahlrichs, Phys. Chem. Chem. Phys. 7, 3297 (2005).

----- AuxJ basis set information -----
Your calculation utilizes the auxiliary basis: def2/J
   H-Rn: F. Weigend, Phys. Chem. Chem. Phys. 8, 1057 (2006).
   Fr-Lr: K. Eichkorn, F. Weigend, O. Treutler, R. Ahlrichs; Theor. Chem. Acc. 97, 119 (1997).

================================================================================
                                        WARNINGS
                       Please study these warnings very carefully!
================================================================================


WARNING: Geometry Optimization
  ===> : Switching off AutoStart
         For restart on a previous wavefunction, please use MOREAD

================================================================================
                                       INPUT FILE
================================================================================
NAME = rank01_quasi_planar_nn1.70_perturb0.inp
|  1> ! B3LYP def2-TZVP def2/J RIJCOSX Opt TightSCF D3BJ Freq
|  2> 
|  3> %pal nprocs 8 end
|  4> %maxcore 2500
|  5> 
|  6> %geom
|  7>   MaxIter 500
|  8> end
|  9> 
| 10> * xyz 0 1
| 11>   B           0.87619116245370      0.39364086108939      0.35488200314662
| 12>   B          -0.81366884937228      0.55898634721962      0.36425624432322
| 13>   B          -0.11138880083349     -0.98814169017279      0.36978209893072
| 14>   B           2.43090865775873      0.22931587918222     -0.20184889152117
| 15>   B           1.77539661608136      1.67077704376805     -0.20532265869321
| 16>   B           0.17906325406624      2.02146322597484     -0.07173390781498
| 17>   B          -1.45629633803544      1.98537002087586     -0.18818861405247
| 18>   B          -2.37801501598922      0.69736262866822     -0.17253167916039
| 19>   B          -1.88028762640868     -0.85945141949127     -0.03867512570734
| 20>   B          -1.03401295613783     -2.25808502384486     -0.16909013521946
| 21>   B           0.54257758434706     -2.41131568988152     -0.17870927696101
| 22>   B           1.64497887206986     -1.20311165338775     -0.06183759727052
| 23> *
| 24> 
| 25>                          ****END OF INPUT****
================================================================================

                       *****************************
                       * Geometry Optimization Run *
                       *****************************

Geometry optimization settings:
Update method            Update   .... BFGS
Choice of coordinates    CoordSys .... (2022) Redundant Internals
Initial Hessian          InHess   .... Almloef's Model
Max. no of cycles        MaxIter  .... 500

Convergence Tolerances:
Energy Change            TolE     ....  5.0000e-06 Eh
Max. Gradient            TolMAXG  ....  3.0000e-04 Eh/bohr
RMS Gradient             TolRMSG  ....  1.0000e-04 Eh/bohr
Max. Displacement        TolMAXD  ....  4.0000e-03 bohr
RMS Displacement         TolRMSD  ....  2.0000e-03 bohr
Strict Convergence                .... False

------------------------------------------------------------------------------
                        ORCA OPTIMIZATION COORDINATE SETUP
------------------------------------------------------------------------------

The optimization will be done in redundant internal coordinates (2022)
Making redundant internal coordinates   ...  (2022 redundants) done
Evaluating the initial hessian          ...  (Almloef) done
Evaluating the coordinates              ...  done
Calculating the B-matrix                .... done
Calculating the G-matrix                .... done
The number of degrees of freedom        ....  264

    -----------------------------------------------------------------
                    Redundant Internal Coordinates


    -----------------------------------------------------------------
         Definition                    Initial Value    Approx d2E/dq
    -----------------------------------------------------------------
      1. B(B   1,B   0)                  1.6980         0.270427   
      2. B(B   2,B   0)                  1.6985         0.269899   
      3. B(B   2,B   1)                  1.6991         0.269324   
      4. B(B   3,B   0)                  1.6595         0.311406   
      5. B(B   4,B   3)                  1.5835         0.411750   
      6. B(B   4,B   0)                  1.6594         0.311621   
      7. B(B   5,B   0)                  1.8215         0.171780   
      8. B(B   5,B   4)                  1.6398         0.334776   
      9. B(B   5,B   1)                  1.8206         0.172362   
     10. B(B   6,B   5)                  1.6399         0.334717   
     11. B(B   6,B   1)                  1.6591         0.311876   
     12. B(B   7,B   6)                  1.5839         0.411151   
     13. B(B   7,B   1)                  1.6597         0.311279   
     14. B(B   8,B   2)                  1.8200         0.172717   
     15. B(B   8,B   1)                  1.8199         0.172788   
     16. B(B   8,B   7)                  1.6399         0.334696   
     17. B(B   9,B   8)                  1.6399         0.334679   
     18. B(B   9,B   2)                  1.6596         0.311311   
     19. B(B  10,B   9)                  1.5840         0.410943   
     20. B(B  10,B   2)                  1.6595         0.311461   
     21. B(B  11,B  10)                  1.6397         0.334927   
     22. B(B  11,B   3)                  1.6399         0.334765   
     23. B(B  11,B   2)                  1.8214         0.171860   
     24. B(B  11,B   0)                  1.8205         0.172385   
     25. A(B   2,B   0,B   5)          120.4351         0.312081   
     26. A(B   3,B   0,B   5)          111.6212         0.319422   
     27. A(B   2,B   0,B   4)          160.7676         0.344273   
     28. A(B   1,B   0,B   5)           62.1840         0.312179   
     29. A(B   4,B   0,B  11)          111.6501         0.319641   
     30. A(B   3,B   0,B   4)           56.9948         0.352673   
     31. A(B   1,B   0,B   4)          117.7899         0.344386   
     32. A(B   1,B   0,B   3)          160.7102         0.344346   
     33. A(B   2,B   0,B  11)           62.2255         0.312258   
     34. A(B   2,B   0,B   3)          117.8466         0.344233   
     35. A(B   1,B   0,B   2)           60.0330         0.336211   
     36. A(B   3,B   0,B  11)           55.9960         0.319605   
     37. A(B   1,B   0,B  11)          120.4608         0.312357   
     38. A(B   5,B   0,B  11)          153.1056         0.290555   
     39. A(B   4,B   0,B   5)           55.9789         0.319457   
     40. A(B   2,B   1,B   7)          117.8117         0.344086   
     41. A(B   0,B   1,B   5)           62.2389         0.312350   
     42. A(B   0,B   1,B   2)           59.9990         0.336092   
     43. A(B   0,B   1,B   7)          160.8059         0.344322   
     44. A(B   5,B   1,B   6)           56.0027         0.319677   
     45. A(B   2,B   1,B   8)           62.1771         0.312268   
     46. A(B   0,B   1,B   6)          117.8630         0.344433   
     47. A(B   6,B   1,B   8)          111.6749         0.319806   
     48. A(B   7,B   1,B   8)           56.0094         0.319706   
     49. A(B   0,B   1,B   8)          120.4094         0.312475   
     50. A(B   2,B   1,B   5)          120.4554         0.312143   
     51. A(B   5,B   1,B   8)          153.2112         0.290816   
     52. A(B   6,B   1,B   7)           57.0125         0.352698   
     53. A(B   2,B   1,B   6)          160.7365         0.344197   
     54. A(B   5,B   1,B   7)          111.6873         0.319577   
     55. A(B   9,B   2,B  10)           57.0116         0.352624   
     56. A(B   8,B   2,B  10)          111.6831         0.319715   
     57. A(B   1,B   2,B  10)          160.5118         0.344120   
     58. A(B   0,B   2,B   1)           59.9680         0.335982   
     59. A(B   0,B   2,B  10)          117.7523         0.344243   
     60. A(B  10,B   2,B  11)           55.9748         0.319455   
     61. A(B   8,B   2,B   9)           56.0081         0.319689   
     62. A(B   1,B   2,B   9)          117.7705         0.344092   
     63. A(B   0,B   2,B   9)          160.5454         0.344215   
     64. A(B   9,B   2,B  11)          111.6432         0.319430   
     65. A(B   8,B   2,B  11)          153.1770         0.290664   
     66. A(B   1,B   2,B   8)           62.1705         0.312248   
     67. A(B   0,B   2,B   8)          120.3730         0.312355   
     68. A(B   1,B   2,B  11)          120.3504         0.311996   
     69. A(B   0,B   2,B  11)           62.1759         0.312104   
     70. A(B   4,B   3,B  11)          126.6508         0.374473   
     71. A(B   0,B   3,B   4)           61.4966         0.369837   
     72. A(B   0,B   3,B  11)           66.9744         0.356984   
     73. A(B   0,B   4,B   3)           61.5085         0.369881   
     74. A(B   3,B   4,B   5)          126.6885         0.374475   
     75. A(B   0,B   4,B   5)           67.0189         0.357027   
     76. A(B   4,B   5,B   6)          163.7967         0.361400   
     77. A(B   1,B   5,B   6)           57.0126         0.323396   
     78. A(B   0,B   5,B   6)          112.2488         0.323217   
     79. A(B   1,B   5,B   4)          112.2431         0.323406   
     80. A(B   0,B   5,B   4)           57.0023         0.323227   
     81. A(B   0,B   5,B   1)           55.5771         0.290549   
     82. A(B   1,B   6,B   5)           66.9846         0.357066   
     83. A(B   5,B   6,B   7)          126.6918         0.374369   
     84. A(B   1,B   6,B   7)           61.5103         0.369840   
     85. A(B   6,B   7,B   8)          126.5955         0.374365   
     86. A(B   1,B   7,B   8)           66.9441         0.356946   
     87. A(B   1,B   7,B   6)           61.4772         0.369719   
     88. A(B   7,B   8,B   9)          163.6943         0.361378   
     89. A(B   2,B   8,B   9)           57.0428         0.323500   
     90. A(B   1,B   8,B   9)          112.3267         0.323522   
     91. A(B   2,B   8,B   7)          112.3604         0.323503   
     92. A(B   1,B   8,B   7)           57.0465         0.323524   
     93. A(B   1,B   8,B   2)           55.6524         0.290910   
     94. A(B   8,B   9,B  10)          126.6266         0.374329   
     95. A(B   2,B   9,B  10)           61.4900         0.369693   
     96. A(B   2,B   9,B   8)           66.9491         0.356950   
     97. A(B   2,B  10,B   9)           61.4984         0.369724   
     98. A(B   9,B  10,B  11)          126.6863         0.374377   
     99. A(B   2,B  10,B  11)           67.0131         0.357024   
    100. A(B   3,B  11,B  10)          163.6902         0.361437   
    101. A(B   2,B  11,B  10)           57.0121         0.323275   
    102. A(B   0,B  11,B  10)          112.2514         0.323437   
    103. A(B   2,B  11,B   3)          112.2904         0.323249   
    104. A(B   0,B  11,B   3)           57.0296         0.323411   
    105. A(B   0,B  11,B   2)           55.5987         0.290576   
    106. D(B   5,B   1,B   0,B  11)   -149.2636         0.010000   
    107. D(B   2,B   1,B   0,B  11)     15.6050         0.010000   
    108. D(B   2,B   1,B   0,B   4)    158.1438         0.010000   
    109. D(B   2,B   1,B   0,B   3)     89.1285         0.010000   
    110. D(B   2,B   1,B   0,B   5)    164.8686         0.010000   
    111. D(B   5,B   1,B   0,B   4)     -6.7248         0.010000   
    112. D(B   5,B   1,B   0,B   2)   -164.8686         0.010000   
    113. D(B   5,B   1,B   0,B   3)    -75.7401         0.010000   
    114. D(B   6,B   1,B   0,B   2)   -158.0914         0.010000   
    115. D(B   6,B   1,B   0,B   3)    -68.9629         0.010000   
    116. D(B   8,B   2,B   0,B   1)     15.4590         0.010000   
    117. D(B   1,B   2,B   0,B  11)   -164.8071         0.010000   
    118. D(B   0,B   2,B   1,B   7)    158.1836         0.010000   
    119. D(B   9,B   2,B   1,B   5)   -142.3503         0.010000   
    120. D(B   1,B   2,B   0,B   4)    -88.9169         0.010000   
    121. D(B   1,B   2,B   0,B   5)    -15.5315         0.010000   
    122. D(B   8,B   2,B   0,B  11)   -149.3482         0.010000   
    123. D(B   8,B   2,B   1,B   6)    -75.8620         0.010000   
    124. D(B   1,B   2,B   0,B   3)   -158.0642         0.010000   
    125. D(B   9,B   2,B   1,B   0)   -157.8932         0.010000   
    126. D(B   0,B   2,B   1,B   5)     15.5429         0.010000   
    127. D(B   8,B   2,B   0,B   4)    -73.4580         0.010000   
    128. D(B   8,B   2,B   1,B   5)   -149.3846         0.010000   
    129. D(B   8,B   2,B   1,B   0)   -164.9275         0.010000   
    130. D(B   8,B   2,B   1,B   7)     -6.7439         0.010000   
    131. D(B   0,B   2,B   1,B   8)    164.9275         0.010000   
    132. D(B   8,B   2,B   0,B   5)     -0.0726         0.010000   
    133. D(B   0,B   2,B   1,B   6)     89.0655         0.010000   
    134. D(B   8,B   2,B   0,B   3)   -142.6053         0.010000   
    135. D(B   9,B   2,B   0,B   1)     88.8122         0.010000   
    136. D(B   4,B   3,B   0,B   1)     80.0427         0.010000   
    137. D(B  11,B   3,B   0,B   4)   -165.6647         0.010000   
    138. D(B  11,B   3,B   0,B   2)     -7.1990         0.010000   
    139. D(B   4,B   3,B   0,B  11)    165.6647         0.010000   
    140. D(B  11,B   3,B   0,B   1)    -85.6220         0.010000   
    141. D(B   4,B   3,B   0,B   5)     12.8111         0.010000   
    142. D(B   4,B   3,B   0,B   2)    158.4656         0.010000   
    143. D(B   5,B   4,B   3,B   0)    -16.5908         0.010000   
    144. D(B   5,B   4,B   0,B   3)    165.5990         0.010000   
    145. D(B   5,B   4,B   0,B   2)     85.4388         0.010000   
    146. D(B   5,B   4,B   0,B   1)      7.1784         0.010000   
    147. D(B   0,B   4,B   3,B  11)     16.5006         0.010000   
    148. D(B   3,B   4,B   0,B  11)    -12.7581         0.010000   
    149. D(B   3,B   4,B   0,B   5)   -165.5990         0.010000   
    150. D(B   3,B   4,B   0,B   2)    -80.1602         0.010000   
    151. D(B   5,B   4,B   3,B  11)     -0.0901         0.010000   
    152. D(B   3,B   4,B   0,B   1)   -158.4206         0.010000   
    153. D(B   4,B   5,B   1,B   6)   -166.2678         0.010000   
    154. D(B   4,B   5,B   1,B   0)      6.5030         0.010000   
    155. D(B   4,B   5,B   1,B   2)     -8.7002         0.010000   
    156. D(B   0,B   5,B   1,B   6)   -172.7708         0.010000   
    157. D(B   0,B   5,B   1,B   2)    -15.2032         0.010000   
    158. D(B   4,B   5,B   0,B   1)   -172.8199         0.010000   
    159. D(B   1,B   5,B   0,B  11)    103.1158         0.010000   
    160. D(B   1,B   5,B   0,B   4)    172.8199         0.010000   
    161. D(B   1,B   5,B   0,B   3)    159.8548         0.010000   
    162. D(B   0,B   5,B   1,B   7)   -159.9211         0.010000   
    163. D(B   0,B   5,B   1,B   8)   -103.0979         0.010000   
    164. D(B   1,B   5,B   0,B   2)     15.2053         0.010000   
    165. D(B   4,B   5,B   0,B  11)    -69.7041         0.010000   
    166. D(B   4,B   5,B   0,B   3)    -12.9651         0.010000   
    167. D(B   4,B   5,B   1,B   7)   -153.4181         0.010000   
    168. D(B   4,B   5,B   0,B   2)   -157.6146         0.010000   
    169. D(B   6,B   5,B   4,B   3)    -36.1020         0.010000   
    170. D(B   6,B   5,B   4,B   0)    -51.9203         0.010000   
    171. D(B   1,B   5,B   4,B   3)      9.4227         0.010000   
    172. D(B   1,B   5,B   4,B   0)     -6.3955         0.010000   
    173. D(B   0,B   5,B   4,B   3)     15.8182         0.010000   
    174. D(B   7,B   6,B   5,B   4)     36.2755         0.010000   
    175. D(B   1,B   6,B   5,B   0)      6.4394         0.010000   
    176. D(B   5,B   6,B   1,B   7)   -165.7372         0.010000   
    177. D(B   7,B   6,B   1,B   0)    158.5012         0.010000   
    178. D(B   5,B   6,B   1,B   8)   -152.9485         0.010000   
    179. D(B   7,B   6,B   1,B   2)     80.1362         0.010000   
    180. D(B   1,B   6,B   5,B   4)     51.9422         0.010000   
    181. D(B   7,B   6,B   5,B   0)     -9.2273         0.010000   
    182. D(B   5,B   6,B   1,B   2)    -85.6010         0.010000   
    183. D(B   5,B   6,B   1,B   0)     -7.2360         0.010000   
    184. D(B   7,B   6,B   5,B   1)    -15.6667         0.010000   
    185. D(B   7,B   6,B   1,B   5)    165.7372         0.010000   
    186. D(B   8,B   7,B   6,B   5)     -0.0921         0.010000   
    187. D(B   8,B   7,B   6,B   1)    -16.5190         0.010000   
    188. D(B   1,B   7,B   6,B   5)     16.4268         0.010000   
    189. D(B   8,B   7,B   1,B   5)    152.9368         0.010000   
    190. D(B   8,B   7,B   1,B   2)      7.1957         0.010000   
    191. D(B   8,B   7,B   1,B   0)     85.4122         0.010000   
    192. D(B   6,B   7,B   1,B   8)   -165.6350         0.010000   
    193. D(B   6,B   7,B   1,B   5)    -12.6982         0.010000   
    194. D(B   6,B   7,B   1,B   2)   -158.4393         0.010000   
    195. D(B   6,B   7,B   1,B   0)    -80.2228         0.010000   
    196. D(B   9,B   8,B   7,B   1)    -52.8755         0.010000   
    197. D(B   2,B   8,B   7,B   6)      9.3329         0.010000   
    198. D(B   2,B   8,B   7,B   1)     -6.4213         0.010000   
    199. D(B   7,B   8,B   2,B  10)   -153.0731         0.010000   
    200. D(B   7,B   8,B   2,B   9)   -165.9639         0.010000   
    201. D(B   7,B   8,B   2,B   1)      6.5266         0.010000   
    202. D(B   1,B   8,B   2,B  11)   -102.8391         0.010000   
    203. D(B   1,B   8,B   2,B  10)   -159.5997         0.010000   
    204. D(B   1,B   8,B   2,B   9)   -172.4905         0.010000   
    205. D(B   1,B   8,B   2,B   0)    -15.1261         0.010000   
    206. D(B   7,B   8,B   1,B   6)    -12.9403         0.010000   
    207. D(B   7,B   8,B   2,B   0)     -8.5995         0.010000   
    208. D(B   7,B   8,B   1,B   5)    -69.7215         0.010000   
    209. D(B   7,B   8,B   1,B   2)   -172.8035         0.010000   
    210. D(B   7,B   8,B   1,B   0)   -157.6668         0.010000   
    211. D(B   1,B   8,B   7,B   6)     15.7541         0.010000   
    212. D(B   2,B   8,B   1,B   7)    172.8035         0.010000   
    213. D(B   2,B   8,B   1,B   6)    159.8633         0.010000   
    214. D(B   2,B   8,B   1,B   5)    103.0820         0.010000   
    215. D(B   9,B   8,B   7,B   6)    -37.1214         0.010000   
    216. D(B   2,B   8,B   1,B   0)     15.1367         0.010000   
    217. D(B  10,B   9,B   8,B   2)    -15.7011         0.010000   
    218. D(B  10,B   9,B   8,B   1)     -9.0025         0.010000   
    219. D(B   2,B   9,B   8,B   7)     53.0235         0.010000   
    220. D(B   2,B   9,B   8,B   1)      6.6986         0.010000   
    221. D(B  10,B   9,B   2,B   8)    165.6908         0.010000   
    222. D(B  10,B   9,B   2,B   1)    158.1854         0.010000   
    223. D(B  10,B   9,B   2,B   0)     80.1622         0.010000   
    224. D(B   8,B   9,B   2,B  11)   -152.9244         0.010000   
    225. D(B   8,B   9,B   2,B  10)   -165.6908         0.010000   
    226. D(B   8,B   9,B   2,B   1)     -7.5054         0.010000   
    227. D(B  10,B   9,B   8,B   7)     37.3224         0.010000   
    228. D(B   8,B   9,B   2,B   0)    -85.5287         0.010000   
    229. D(B   9,B  10,B   2,B  11)   -165.6509         0.010000   
    230. D(B   9,B  10,B   2,B   8)    -12.7398         0.010000   
    231. D(B   9,B  10,B   2,B   1)    -80.2592         0.010000   
    232. D(B   9,B  10,B   2,B   0)   -158.2340         0.010000   
    233. D(B  11,B  10,B   9,B   8)     -0.0675         0.010000   
    234. D(B  11,B  10,B   9,B   2)    -16.5293         0.010000   
    235. D(B   2,B  10,B   9,B   8)     16.4618         0.010000   
    236. D(B  11,B  10,B   2,B   8)    152.9112         0.010000   
    237. D(B  11,B  10,B   2,B   1)     85.3917         0.010000   
    238. D(B  11,B  10,B   2,B   0)      7.4170         0.010000   
    239. D(B   3,B  11,B  10,B   2)    -52.5453         0.010000   
    240. D(B   2,B  11,B  10,B   9)     15.7589         0.010000   
    241. D(B   0,B  11,B  10,B   9)      9.1462         0.010000   
    242. D(B  10,B  11,B   3,B   4)     36.7000         0.010000   
    243. D(B  10,B  11,B   3,B   0)     52.4360         0.010000   
    244. D(B   2,B  11,B   3,B   4)     -9.3241         0.010000   
    245. D(B   0,B  11,B   3,B   4)    -15.7360         0.010000   
    246. D(B   3,B  11,B   2,B   9)    153.1351         0.010000   
    247. D(B   3,B  11,B   2,B   8)     96.3797         0.010000   
    248. D(B   3,B  11,B   2,B   1)      8.7232         0.010000   
    249. D(B   3,B  11,B   2,B   0)     -6.5200         0.010000   
    250. D(B   0,B  11,B   2,B  10)    172.5781         0.010000   
    251. D(B   0,B  11,B   2,B   9)    159.6551         0.010000   
    252. D(B   0,B  11,B   2,B   8)    102.8997         0.010000   
    253. D(B   0,B  11,B   2,B   1)     15.2432         0.010000   
    254. D(B   3,B  11,B   0,B   5)     69.6680         0.010000   
    255. D(B   2,B  11,B   3,B   0)      6.4119         0.010000   
    256. D(B   3,B  11,B   0,B   4)     12.9088         0.010000   
    257. D(B   3,B  11,B   0,B   2)    172.8058         0.010000   
    258. D(B   3,B  11,B   0,B   1)    157.5346         0.010000   
    259. D(B   0,B  11,B  10,B   2)     -6.6127         0.010000   
    260. D(B   2,B  11,B   0,B   5)   -103.1377         0.010000   
    261. D(B   2,B  11,B   0,B   4)   -159.8970         0.010000   
    262. D(B   2,B  11,B   0,B   3)   -172.8058         0.010000   
    263. D(B   3,B  11,B  10,B   9)    -36.7864         0.010000   
    264. D(B   2,B  11,B   0,B   1)    -15.2712         0.010000   
    -----------------------------------------------------------------

Number of atoms                         .... 12
Number of degrees of freedom            .... 264


         *************************************************************
         *                GEOMETRY OPTIMIZATION CYCLE   1            *
         *************************************************************
---------------------------------
CARTESIAN COORDINATES (ANGSTROEM)
---------------------------------
  B      0.876191    0.393641    0.354882
  B     -0.813669    0.558986    0.364256
  B     -0.111389   -0.988142    0.369782
  B      2.430909    0.229316   -0.201849
  B      1.775397    1.670777   -0.205323
  B      0.179063    2.021463   -0.071734
  B     -1.456296    1.985370   -0.188189
  B     -2.378015    0.697363   -0.172532
  B     -1.880288   -0.859451   -0.038675
  B     -1.034013   -2.258085   -0.169090
  B      0.542578   -2.411316   -0.178709
  B      1.644979   -1.203112   -0.061838

----------------------------
CARTESIAN COORDINATES (A.U.)
----------------------------
  NO LB      ZA    FRAG     MASS         X           Y           Z
   0 B     5.0000    0    10.810    1.655761    0.743873    0.670630
   1 B     5.0000    0    10.810   -1.537611    1.056331    0.688345
   2 B     5.0000    0    10.810   -0.210494   -1.867317    0.698787
   3 B     5.0000    0    10.810    4.593752    0.433344   -0.381439
   4 B     5.0000    0    10.810    3.355013    3.157311   -0.388004
   5 B     5.0000    0    10.810    0.338381    3.820012   -0.135557
   6 B     5.0000    0    10.810   -2.752001    3.751806   -0.355625
   7 B     5.0000    0    10.810   -4.493797    1.317824   -0.326038
   8 B     5.0000    0    10.810   -3.553229   -1.624128   -0.073085
   9 B     5.0000    0    10.810   -1.954001   -4.267162   -0.319534
  10 B     5.0000    0    10.810    1.025323   -4.556726   -0.337712
  11 B     5.0000    0    10.810    3.108560   -2.273552   -0.116856

--------------------------------
INTERNAL COORDINATES (ANGSTROEM)
--------------------------------
 B      0   0   0     0.000000000000     0.00000000     0.00000000
 B      1   0   0     1.697955790281     0.00000000     0.00000000
 B      1   2   0     1.698487331632    60.03298625     0.00000000
 B      1   2   3     1.659547673001   160.71018506    89.12846568
 B      4   1   2     1.583514569826    61.49662319    80.04265978
 B      5   4   1     1.639849674645   126.68853969   343.40924974
 B      6   5   4     1.639897988760   163.79665063   323.89797965
 B      7   6   5     1.583910825546   126.69184954    36.27549306
 B      8   7   6     1.639914666008   126.59554366   359.90787709
 B      9   8   7     1.639928306810   163.69426817   322.87862651
 B     10   9   8     1.584048577932   126.62659220    37.32241986
 B     11  10   9     1.639726984131   126.68628541   359.93252742

---------------------------
INTERNAL COORDINATES (A.U.)
---------------------------
 B      0   0   0     0.000000000000     0.00000000     0.00000000
 B      1   0   0     3.208671431137     0.00000000     0.00000000
 B      1   2   0     3.209675898719    60.03298625     0.00000000
 B      1   2   3     3.136090608159   160.71018506    89.12846568
 B      4   1   2     2.992408866045    61.49662319    80.04265978
 B      5   4   1     3.098866785880   126.68853969   343.40924974
 B      6   5   4     3.098958086324   163.79665063   323.89797965
 B      7   6   5     2.993157680834   126.69184954    36.27549306
 B      8   7   6     3.098989601756   126.59554366   359.90787709
 B      9   8   7     3.099015379135   163.69426817   322.87862651
 B     10   9   8     2.993417995119   126.62659220    37.32241986
 B     11  10   9     3.098634934408   126.68628541   359.93252742

---------------------
BASIS SET INFORMATION
---------------------
There are 1 groups of distinct atoms

 Group   1 Type B   : 11s6p2d1f contracted to 5s3p2d1f pattern {62111/411/11/1}

Atom   0B    basis set group =>   1
Atom   1B    basis set group =>   1
Atom   2B    basis set group =>   1
Atom   3B    basis set group =>   1
Atom   4B    basis set group =>   1
Atom   5B    basis set group =>   1
Atom   6B    basis set group =>   1
Atom   7B    basis set group =>   1
Atom   8B    basis set group =>   1
Atom   9B    basis set group =>   1
Atom  10B    basis set group =>   1
Atom  11B    basis set group =>   1
---------------------------------
AUXILIARY/J BASIS SET INFORMATION
---------------------------------
There are 1 groups of distinct atoms

 Group   1 Type B   : 12s5p4d2f1g contracted to 6s4p3d1f1g pattern {711111/2111/211/2/1}

Atom   0B    basis set group =>   1
Atom   1B    basis set group =>   1
Atom   2B    basis set group =>   1
Atom   3B    basis set group =>   1
Atom   4B    basis set group =>   1
Atom   5B    basis set group =>   1
Atom   6B    basis set group =>   1
Atom   7B    basis set group =>   1
Atom   8B    basis set group =>   1
Atom   9B    basis set group =>   1
Atom  10B    basis set group =>   1
Atom  11B    basis set group =>   1


           ************************************************************
           *        Program running with 8 parallel MPI-processes     *
           *              working on a common directory               *
           ************************************************************
------------------------------------------------------------------------------
                             ORCA STARTUP CALCULATIONS
                           -- RI-GTO INTEGRALS CHOSEN --
------------------------------------------------------------------------------
------------------------------------------------------------------------------
                   ___                                                        
                  /   \      - P O W E R E D   B Y -                         
                 /     \                                                     
                 |  |  |   _    _      __       _____    __    __             
                 |  |  |  | |  | |    /  \     |  _  \  |  |  /  |          
                  \  \/   | |  | |   /    \    | | | |  |  | /  /          
                 / \  \   | |__| |  /  /\  \   | |_| |  |  |/  /          
                |  |  |   |  __  | /  /__\  \  |    /   |      \           
                |  |  |   | |  | | |   __   |  |    \   |  |\   \          
                \     /   | |  | | |  |  |  |  | |\  \  |  | \   \       
                 \___/    |_|  |_| |__|  |__|  |_| \__\ |__|  \__/        
                                                                              
                      - O R C A' S   B I G   F R I E N D -                    
                                      &                                       
                       - I N T E G R A L  F E E D E R -                       
                                                                              
 v1 FN, 2020, v2 2021, v3 2022-2024                                           
------------------------------------------------------------------------------


----------------------
SHARK INTEGRAL PACKAGE
----------------------

Number of atoms                             ...     12
Number of basis functions                   ...    372
Number of shells                            ...    132
Maximum angular momentum                    ...      3
Integral batch strategy                     ... SHARK/LIBINT Hybrid
RI-J (if used) integral strategy            ... SPLIT-RIJ (Revised 2003 algorithm where possible)
Printlevel                                  ...      1
Contraction scheme used                     ... SEGMENTED contraction
Prescreening option                         ... SCHWARTZ
   Thresh                                   ... 2.500e-11
   Tcut                                     ... 2.500e-12
   Tpresel                                  ... 2.500e-12 
Coulomb Range Separation                    ... NOT USED
Exchange Range Separation                   ... NOT USED
Multipole approximations                    ... NOT USED
Finite Nucleus Model                        ... NOT USED
CABS basis                                  ... NOT available
Auxiliary Coulomb fitting basis             ... AVAILABLE
   # of basis functions in Aux-J            ...    588
   # of shells in Aux-J                     ...    180
   Maximum angular momentum in Aux-J        ...      4
Auxiliary J/K fitting basis                 ... NOT available
Auxiliary Correlation fitting basis         ... NOT available
Auxiliary 'external' fitting basis          ... NOT available

Checking pre-screening integrals            ... done (  0.1 sec) Dimension = 132
   => SHARK Basis and OBASIS are compatible. Storing Pre-screening
Shell pair information
Shell pair cut-off parameter TPreSel        ...   2.5e-12
Total number of shell pairs                 ...      8778
Shell pairs after pre-screening             ...      8460
Total number of primitive shell pairs       ...     29184
Primitive shell pairs kept                  ...     21406
          la=0 lb=0:   1644 shell pairs
          la=1 lb=0:   2112 shell pairs
          la=1 lb=1:    666 shell pairs
          la=2 lb=0:   1380 shell pairs
          la=2 lb=1:    864 shell pairs
          la=2 lb=2:    300 shell pairs
          la=3 lb=0:    696 shell pairs
          la=3 lb=1:    432 shell pairs
          la=3 lb=2:    288 shell pairs
          la=3 lb=3:     78 shell pairs

Checking whether 4 symmetric matrices of dimension 372 fit in memory
:Max Core in MB      =   2500.00
 MB in use           =     14.68
 MB left             =   2485.32
 MB needed           =      2.12
 Data fit in memory  = YES
Calculating RI/J V-Matrix + Cholesky decomp.... done (  0.7 sec)
Calculating Nuclear repulsion               ... done (  0.0 sec) ENN=    348.485290201294 Eh

Diagonalization of the overlap matrix:
Smallest eigenvalue                        ... 1.036e-05
Time for diagonalization                   ...    0.368 sec
Threshold for overlap eigenvalues          ... 1.000e-07
Number of eigenvalues below threshold      ... 0
Time for construction of square roots      ...    0.240 sec
Total time needed                          ...    0.815 sec

-------------------
DFT GRID GENERATION
-------------------

General Integration Accuracy     IntAcc      ... 4.388
Radial Grid Type                 RadialGrid  ... OptM3 with GC (2021)
Angular Grid (max. ang.)         AngularGrid ... 4 (Lebedev-302)
Angular grid pruning method      GridPruning ... 4 (adaptive)
Weight generation scheme         WeightScheme... mBecke (2022)
Basis function cutoff            BFCut       ... 1.0000e-11
Integration weight cutoff        WCut        ... 1.0000e-14
Partially contracted basis set               ... off
Rotationally invariant grid construction     ... off
Angular grids for H and He will be reduced by one unit

Total number of grid points                  ...    70912
Total number of batches                      ...     1116
Average number of points per batch           ...       63
Average number of grid points per atom       ...     5909

--------------------
COSX GRID GENERATION
--------------------

GRIDX 1
-------
General Integration Accuracy     IntAcc      ... 3.816
Radial Grid Type                 RadialGrid  ... OptM3 with GC (2021)
Angular Grid (max. ang.)         AngularGrid ... 1 (Lebedev-50)
Angular grid pruning method      GridPruning ... 4 (adaptive)
Weight generation scheme         WeightScheme... mBecke (2022)
Basis function cutoff            BFCut       ... 1.0000e-11
Integration weight cutoff        WCut        ... 1.0000e-14
Partially contracted basis set               ... on
Rotationally invariant grid construction     ... off
Angular grids for H and He will be reduced by one unit

Total number of grid points                  ...     8925
Total number of batches                      ...       77
Average number of points per batch           ...      115
Average number of grid points per atom       ...      744
UseSFitting                                  ... on

GRIDX 2
-------
General Integration Accuracy     IntAcc      ... 4.020
Radial Grid Type                 RadialGrid  ... OptM3 with GC (2021)
Angular Grid (max. ang.)         AngularGrid ... 2 (Lebedev-110)
Angular grid pruning method      GridPruning ... 4 (adaptive)
Weight generation scheme         WeightScheme... mBecke (2022)
Basis function cutoff            BFCut       ... 1.0000e-11
Integration weight cutoff        WCut        ... 1.0000e-14
Partially contracted basis set               ... on
Rotationally invariant grid construction     ... off
Angular grids for H and He will be reduced by one unit

Total number of grid points                  ...    21101
Total number of batches                      ...      170
Average number of points per batch           ...      124
Average number of grid points per atom       ...     1758
UseSFitting                                  ... on

GRIDX 3
-------
General Integration Accuracy     IntAcc      ... 4.338
Radial Grid Type                 RadialGrid  ... OptM3 with GC (2021)
Angular Grid (max. ang.)         AngularGrid ... 3 (Lebedev-194)
Angular grid pruning method      GridPruning ... 4 (adaptive)
Weight generation scheme         WeightScheme... mBecke (2022)
Basis function cutoff            BFCut       ... 1.0000e-11
Integration weight cutoff        WCut        ... 1.0000e-14
Partially contracted basis set               ... on
Rotationally invariant grid construction     ... off
Angular grids for H and He will be reduced by one unit

Total number of grid points                  ...    46836
Total number of batches                      ...      372
Average number of points per batch           ...      125
Average number of grid points per atom       ...     3903
UseSFitting                                  ... on
Grids setup in   2.5 sec
Initializing property integral containers    ... done (  0.1 sec)

SHARK setup successfully completed in   5.8 seconds

Maximum memory used throughout the entire STARTUP-calculation: 30.0 MB


           ************************************************************
           *        Program running with 8 parallel MPI-processes     *
           *              working on a common directory               *
           ************************************************************
-------------------------------------------------------------------------------
                                 ORCA GUESS
                   Start orbitals & Density for SCF / CASSCF
-------------------------------------------------------------------------------

------------
SCF SETTINGS
------------
Hamiltonian:
 Density Functional     Method          .... DFT(GTOs)
 Exchange Functional    Exchange        .... B88
   X-Alpha parameter    XAlpha          ....  0.666667
   Becke's b parameter  XBeta           ....  0.004200
 Correlation Functional Correlation     .... LYP
 LDA part of GGA corr.  LDAOpt          .... VWN-5
 Gradients option       PostSCFGGA      .... off
 Hybrid DFT is turned on
   Fraction HF Exchange ScalHFX         ....  0.200000
   Scaling of DF-GGA-X  ScalDFX         ....  0.720000
   Scaling of DF-GGA-C  ScalDFC         ....  0.810000
   Scaling of DF-LDA-C  ScalLDAC        ....  1.000000
   Perturbative correction              ....  0.000000
   NL short-range parameter             ....  4.800000
 RI-approximation to the Coulomb term is turned on
   Number of AuxJ basis functions       .... 588
   RIJ-COSX (HFX calculated with COS-X)).... on


General Settings:
 Integral files         IntName         .... rank01_quasi_planar_nn1.70_perturb0
 Hartree-Fock type      HFTyp           .... RHF
 Total Charge           Charge          ....    0
 Multiplicity           Mult            ....    1
 Number of Electrons    NEL             ....   60
 Basis Dimension        Dim             ....  372
 Nuclear Repulsion      ENuc            ....    348.4852902013 Eh

Convergence Acceleration:
 AO-DIIS                CNVDIIS         .... on
   Start iteration      DIISMaxIt       ....    12
   Startup error        DIISStart       ....  0.200000
   # of expansion vecs  DIISMaxEq       ....     5
   Bias factor          DIISBfac        ....   1.050
   Max. coefficient     DIISMaxC        ....  10.000
 MO-DIIS                CNVKDIIS        .... off
 Trust-Rad. Augm. Hess. CNVTRAH         .... auto
   Auto Start mean grad. ratio tolernc. ....  1.125000
   Auto Start start iteration           ....    50
   Auto Start num. interpolation iter.  ....    10
   Max. Number of Micro iterations      ....    24
   Max. Number of Macro iterations      .... Maxiter - #DIIS iter
   Number of Davidson start vectors     ....     2
   Converg. threshold    (grad. norm)   ....   1.000e-05
   Grad. Scal. Fac. for Micro threshold ....   0.100
   Minimum threshold for Micro iter.    ....   1.000e-02
   NR start threshold (gradient norm)   ....   1.000e-04
   Initial trust radius                 ....   0.400
   Minimum AH scaling param. (alpha)    ....   1.000
   Maximum AH scaling param. (alpha)    .... 1000.000
   Quad. conv. algorithm                .... NR
   White noise on init. David. guess    .... on
   Maximum white noise                  ....   0.010
   Pseudo random numbers                .... off
   Inactive MOs                         .... canonical
   Orbital update algorithm             .... Taylor
   Preconditioner                       .... Diag
   Full preconditioner red. dimension   ....   250
 SOSCF                 CNVSOSCF           .... on
   Start iteration     SOSCFMaxIt         ....   150
   Startup grad/error  SOSCFStart         ....  0.003300
   Hessian update      SOSCFHessUp        .... L-BFGS
   Autom. constraints  SOSCFAutoConstrain .... off
 Level Shifting         CNVShift        .... on
   Level shift para.    LevelShift      ....    0.2500
   Turn off err/grad.   ShiftErr        ....    0.0010
 Zerner damping         CNVZerner       .... off
 Static damping         CNVDamp         .... on
   Fraction old density DampFac         ....    0.7000
   Max. Damping (<1)    DampMax         ....    0.9800
   Min. Damping (>=0)   DampMin         ....    0.0000
   Turn off err/grad.   DampErr         ....    0.1000

SCF Procedure:
 Maximum # iterations   MaxIter         ....   125
 SCF integral mode      SCFMode         .... Direct
   Integral package                     .... SHARK and LIBINT hybrid scheme
 Reset frequency        DirectResetFreq ....    20
 Integral Threshold     Thresh          ....  2.500e-11 Eh
 Primitive CutOff       TCut            ....  2.500e-12 Eh

Convergence Tolerance:
 Convergence Check Mode ConvCheckMode   .... Total+1el-Energy
 Convergence forced     ConvForced      .... 0
 Energy Change          TolE            ....  1.000e-08 Eh
 1-El. energy change                    ....  1.000e-05 Eh
 Orbital Gradient       TolG            ....  1.000e-05
 Orbital Rotation angle TolX            ....  1.000e-05
 DIIS Error             TolErr          ....  5.000e-07

------------------------------
INITIAL GUESS: MODEL POTENTIAL
------------------------------
Loading Hartree-Fock densities                     ... done
Calculating cut-offs                               ... done
Initializing the effective Hamiltonian             ... done
Setting up the integral package (SHARK)            ... done
Starting the Coulomb interaction                   ... done (   0.3 sec)
Making the grid                                    ... done (   1.6 sec)
Mapping shells                                     ... done
Starting the XC term evaluation                    ... done (   0.5 sec)
  promolecular density results
     # of electrons  =     59.999774633
     EX              =    -45.922006289
     EC              =     -1.894312155
     EX+EC           =    -47.816318444
Transforming the Hamiltonian                       ... done (   0.1 sec)
Diagonalizing the Hamiltonian                      ... done (   0.1 sec)
Back transforming the eigenvectors                 ... done (   0.1 sec)
Now organizing SCF variables                       ... done
                      ------------------
                      INITIAL GUESS DONE (   2.7 sec)
                      ------------------
             **** ENERGY FILE WAS UPDATED (rank01_quasi_planar_nn1.70_perturb0.en.tmp) ****
Finished Guess after   3.6 sec
Maximum memory used throughout the entire GUESS-calculation: 22.5 MB


           ************************************************************
           *        Program running with 8 parallel MPI-processes     *
           *              working on a common directory               *
           ************************************************************

-------------------------------------------------------------------------------------------
                                      ORCA LEAN-SCF
                              memory conserving SCF solver
-------------------------------------------------------------------------------------------

----------------------------------------D-I-I-S--------------------------------------------
Iteration    Energy (Eh)           Delta-E    RMSDP     MaxDP     DIISErr   Damp  Time(sec)
-------------------------------------------------------------------------------------------
               ***  Starting incremental Fock matrix formation  ***
    1    -297.4711151586494111     0.00e+00  6.52e-03  8.34e-02  1.38e-01  0.700   4.7
    2    -297.6386000061550590    -1.67e-01  4.48e-03  4.13e-02  7.20e-02  0.700   3.0
                               ***Turning on AO-DIIS***
    3    -297.7077688678949130    -6.92e-02  2.39e-03  2.22e-02  2.88e-02  0.700   2.6
    4    -297.7481632647426864    -4.04e-02  5.29e-03  5.29e-02  1.66e-02  0.000   2.3
    5    -297.8346168915828116    -8.65e-02  7.92e-04  1.07e-02  6.71e-03  0.000   2.3
                              *** Initializing SOSCF ***
---------------------------------------S-O-S-C-F--------------------------------------
Iteration    Energy (Eh)           Delta-E    RMSDP     MaxDP     MaxGrad    Time(sec)
--------------------------------------------------------------------------------------
    6    -297.8357227873647730    -1.11e-03  5.90e-04  1.36e-02  1.64e-03     2.5
               *** Restarting incremental Fock matrix formation ***
    7    -297.8358156521456408    -9.29e-05  7.94e-04  2.06e-02  3.98e-04     4.6
    8    -297.8358301318116332    -1.45e-05  2.26e-04  5.72e-03  2.35e-04     3.8
    9    -297.8358335953299161    -3.46e-06  1.40e-04  3.52e-03  1.73e-04     3.7
   10    -297.8358342745224832    -6.79e-07  6.78e-05  1.78e-03  1.45e-04     3.9
   11    -297.8358347089796894    -4.34e-07  4.69e-05  1.11e-03  6.18e-05     3.5
   12    -297.8358349320891989    -2.23e-07  7.72e-06  1.86e-04  1.84e-05     3.2
   13    -297.8358349605057924    -2.84e-08  6.69e-06  1.60e-04  1.51e-05     3.3
   14    -297.8358349433738681     1.71e-08  3.87e-06  9.40e-05  2.33e-05     3.2
   15    -297.8358349641778773    -2.08e-08  4.12e-06  8.08e-05  3.41e-06     3.1
   16    -297.8358349720390947    -7.86e-09  3.49e-06  3.43e-05  1.64e-06     3.4
                 **** Energy Check signals convergence ****

               *****************************************************
               *                     SUCCESS                       *
               *           SCF CONVERGED AFTER  16 CYCLES          *
               *****************************************************

Recomputing exchange energy using gridx3       ... done (    6.636 sec)
Old exchange energy                            :     -9.312438125 Eh
New exchange energy                            :     -9.312437595 Eh
Exchange energy change after final integration :      0.000000529 Eh
Total energy after final integration           :   -297.835834436 Eh
             **** ENERGY FILE WAS UPDATED (rank01_quasi_planar_nn1.70_perturb0.en.tmp) ****

----------------
TOTAL SCF ENERGY
----------------

Total Energy       :       -297.83583443569762 Eh           -8104.52508 eV

Components:
Nuclear Repulsion  :        348.48529020129428 Eh            9482.76684 eV
Electronic Energy  :       -646.32112516647737 Eh          -17587.29194 eV
One Electron Energy:      -1085.72453962728673 Eh          -29544.06671 eV
Two Electron Energy:        439.40341446080936 Eh           11956.77478 eV

Virial components:
Potential Energy   :       -593.60219752019668 Eh          -16152.73698 eV
Kinetic Energy     :        295.76636308449906 Eh            8048.21190 eV
Virial Ratio       :          2.00699698008123

DFT components:
N(Alpha)           :       30.000004139998 electrons
N(Beta)            :       30.000004139998 electrons
N(Total)           :       60.000008279996 electrons
E(X)               :      -36.939885536322 Eh       
E(C)               :       -2.272681486839 Eh       
E(XC)              :      -39.212567023161 Eh       

---------------
SCF CONVERGENCE
---------------

  Last Energy change         ...    7.8612e-09  Tolerance :   1.0000e-08
  Last MAX-Density change    ...    3.4326e-05  Tolerance :   1.0000e-07
  Last RMS-Density change    ...    3.4913e-06  Tolerance :   5.0000e-09
  Last DIIS Error            ...    1.6382e-03  Tolerance :   5.0000e-07
  Last Orbital Gradient      ...    1.6389e-06  Tolerance :   1.0000e-05
  Last Orbital Rotation      ...    4.2512e-06  Tolerance :   1.0000e-05


----------------
ORBITAL ENERGIES
----------------

  NO   OCC          E(Eh)            E(eV) 
   0   2.0000      -6.802969      -185.1182 
   1   2.0000      -6.802940      -185.1174 
   2   2.0000      -6.802821      -185.1142 
   3   2.0000      -6.799797      -185.0319 
   4   2.0000      -6.799245      -185.0169 
   5   2.0000      -6.799176      -185.0150 
   6   2.0000      -6.778850      -184.4619 
   7   2.0000      -6.778833      -184.4614 
   8   2.0000      -6.778774      -184.4598 
   9   2.0000      -6.778066      -184.4405 
  10   2.0000      -6.778049      -184.4401 
  11   2.0000      -6.777989      -184.4385 
  12   2.0000      -0.772497       -21.0207 
  13   2.0000      -0.687246       -18.7009 
  14   2.0000      -0.687222       -18.7003 
  15   2.0000      -0.571502       -15.5514 
  16   2.0000      -0.571477       -15.5507 
  17   2.0000      -0.567115       -15.4320 
  18   2.0000      -0.450509       -12.2590 
  19   2.0000      -0.402205       -10.9445 
  20   2.0000      -0.382227       -10.4009 
  21   2.0000      -0.359181        -9.7738 
  22   2.0000      -0.359171        -9.7735 
  23   2.0000      -0.339357        -9.2344 
  24   2.0000      -0.339335        -9.2338 
  25   2.0000      -0.309254        -8.4152 
  26   2.0000      -0.284656        -7.7459 
  27   2.0000      -0.284631        -7.7452 
  28   2.0000      -0.257813        -7.0154 
  29   2.0000      -0.257700        -7.0124 
  30   0.0000      -0.126702        -3.4477 
  31   0.0000      -0.126692        -3.4475 
  32   0.0000      -0.117572        -3.1993 
  33   0.0000      -0.094394        -2.5686 
  34   0.0000      -0.037017        -1.0073 
  35   0.0000      -0.036992        -1.0066 
  36   0.0000      -0.005982        -0.1628 
  37   0.0000      -0.002856        -0.0777 
  38   0.0000      -0.002515        -0.0684 
  39   0.0000       0.001565         0.0426 
  40   0.0000       0.009699         0.2639 
*Only the first 10 virtual orbitals were printed.

                    ********************************
                    * MULLIKEN POPULATION ANALYSIS *
                    ********************************

-----------------------
MULLIKEN ATOMIC CHARGES
-----------------------
   0 B :    0.287674
   1 B :    0.288966
   2 B :    0.289437
   3 B :   -0.156670
   4 B :   -0.156740
   5 B :    0.025031
   6 B :   -0.156582
   7 B :   -0.157358
   8 B :    0.024940
   9 B :   -0.156780
  10 B :   -0.157054
  11 B :    0.025136
Sum of atomic charges:   -0.0000000

--------------------------------
MULLIKEN REDUCED ORBITAL CHARGES
--------------------------------
  0 B s       :     2.808619  s :     2.808619
      pz      :     0.641289  p :     1.726544
      px      :     0.526952
      py      :     0.558303
      dz2     :     0.014160  d :     0.161407
      dxz     :     0.017614
      dyz     :     0.021038
      dx2y2   :     0.052501
      dxy     :     0.056095
      f0      :     0.002121  f :     0.015755
      f+1     :     0.001678
      f-1     :     0.001368
      f+2     :     0.001044
      f-2     :     0.001060
      f+3     :     0.000152
      f-3     :     0.008334

  1 B s       :     2.808172  s :     2.808172
      pz      :     0.643115  p :     1.725769
      px      :     0.532691
      py      :     0.549963
      dz2     :     0.013843  d :     0.161332
      dxz     :     0.018620
      dyz     :     0.020089
      dx2y2   :     0.043957
      dxy     :     0.064823
      f0      :     0.002174  f :     0.015761
      f+1     :     0.001556
      f-1     :     0.001459
      f+2     :     0.000967
      f-2     :     0.001067
      f+3     :     0.000131
      f-3     :     0.008407

  2 B s       :     2.810264  s :     2.810264
      pz      :     0.643302  p :     1.722160
      px      :     0.564264
      py      :     0.514595
      dz2     :     0.013973  d :     0.162390
      dxz     :     0.021794
      dyz     :     0.016991
      dx2y2   :     0.066930
      dxy     :     0.042701
      f0      :     0.002174  f :     0.015749
      f+1     :     0.001299
      f-1     :     0.001716
      f+2     :     0.001084
      f-2     :     0.000942
      f+3     :     0.000157
      f-3     :     0.008377

  3 B s       :     3.337358  s :     3.337358
      pz      :     0.424123  p :     1.741053
      px      :     0.540041
      py      :     0.776890
      dz2     :     0.008315  d :     0.072888
      dxz     :     0.014474
      dyz     :     0.009113
      dx2y2   :     0.025631
      dxy     :     0.015356
      f0      :     0.000969  f :     0.005371
      f+1     :     0.000756
      f-1     :    -0.000189
      f+2     :     0.000044
      f-2     :     0.000854
      f+3     :    -0.000058
      f-3     :     0.002995

  4 B s       :     3.336995  s :     3.336995
      pz      :     0.425052  p :     1.741416
      px      :     0.665089
      py      :     0.651275
      dz2     :     0.008361  d :     0.072960
      dxz     :     0.008643
      dyz     :     0.014935
      dx2y2   :     0.016546
      dxy     :     0.024476
      f0      :     0.000965  f :     0.005369
      f+1     :     0.000282
      f-1     :     0.000290
      f+2     :     0.000808
      f-2     :     0.000090
      f+3     :     0.000370
      f-3     :     0.002564

  5 B s       :     3.162120  s :     3.162120
      pz      :     0.424850  p :     1.710694
      px      :     0.749339
      py      :     0.536505
      dz2     :     0.003898  d :     0.093121
      dxz     :     0.023947
      dyz     :     0.014164
      dx2y2   :     0.022695
      dxy     :     0.028417
      f0      :     0.001639  f :     0.009035
      f+1     :    -0.000025
      f-1     :     0.000847
      f+2     :     0.000896
      f-2     :     0.000837
      f+3     :     0.001262
      f-3     :     0.003579

  6 B s       :     3.337209  s :     3.337209
      pz      :     0.423934  p :     1.741039
      px      :     0.710037
      py      :     0.607068
      dz2     :     0.008326  d :     0.072963
      dxz     :     0.007961
      dyz     :     0.015556
      dx2y2   :     0.021192
      dxy     :     0.019928
      f0      :     0.000981  f :     0.005371
      f+1     :     0.000086
      f-1     :     0.000475
      f+2     :     0.000545
      f-2     :     0.000333
      f+3     :    -0.000065
      f-3     :     0.003017

  7 B s       :     3.337721  s :     3.337721
      pz      :     0.422557  p :     1.741377
      px      :     0.553913
      py      :     0.764906
      dz2     :     0.008125  d :     0.072888
      dxz     :     0.015456
      dyz     :     0.008105
      dx2y2   :     0.026739
      dxy     :     0.014462
      f0      :     0.001002  f :     0.005372
      f+1     :     0.000660
      f-1     :    -0.000126
      f+2     :     0.000068
      f-2     :     0.000799
      f+3     :     0.000369
      f-3     :     0.002602

  8 B s       :     3.162936  s :     3.162936
      pz      :     0.423582  p :     1.709959
      px      :     0.573235
      py      :     0.713143
      dz2     :     0.003836  d :     0.093132
      dxz     :     0.015776
      dyz     :     0.022005
      dx2y2   :     0.026251
      dxy     :     0.025264
      f0      :     0.001672  f :     0.009032
      f+1     :     0.000683
      f-1     :     0.000116
      f+2     :     0.000835
      f-2     :     0.000843
      f+3     :     0.001259
      f-3     :     0.003625

  9 B s       :     3.337388  s :     3.337388
      pz      :     0.422492  p :     1.741193
      px      :     0.726321
      py      :     0.592380
      dz2     :     0.008147  d :     0.072826
      dxz     :     0.012778
      dyz     :     0.010760
      dx2y2   :     0.014879
      dxy     :     0.026262
      f0      :     0.001001  f :     0.005374
      f+1     :    -0.000018
      f-1     :     0.000556
      f+2     :     0.000733
      f-2     :     0.000131
      f+3     :    -0.000057
      f-3     :     0.003027

 10 B s       :     3.337292  s :     3.337292
      pz      :     0.423123  p :     1.741526
      px      :     0.757983
      py      :     0.560421
      dz2     :     0.008266  d :     0.072863
      dxz     :     0.011235
      dyz     :     0.012267
      dx2y2   :     0.018264
      dxy     :     0.022830
      f0      :     0.000988  f :     0.005372
      f+1     :    -0.000123
      f-1     :     0.000676
      f+2     :     0.000444
      f-2     :     0.000428
      f+3     :     0.000380
      f-3     :     0.002579

 11 B s       :     3.162717  s :     3.162717
      pz      :     0.424428  p :     1.709931
      px      :     0.607623
      py      :     0.677880
      dz2     :     0.003882  d :     0.093187
      dxz     :     0.017472
      dyz     :     0.020529
      dx2y2   :     0.028193
      dxy     :     0.023112
      f0      :     0.001647  f :     0.009029
      f+1     :     0.000558
      f-1     :     0.000256
      f+2     :     0.000835
      f-2     :     0.000882
      f+3     :     0.001271
      f-3     :     0.003580



                     *******************************
                     * LOEWDIN POPULATION ANALYSIS *
                     *******************************

----------------------
LOEWDIN ATOMIC CHARGES
----------------------
   0 B :   -0.213027
   1 B :   -0.213522
   2 B :   -0.212635
   3 B :    0.080489
   4 B :    0.080396
   5 B :    0.052166
   6 B :    0.080570
   7 B :    0.080937
   8 B :    0.051313
   9 B :    0.080851
  10 B :    0.080584
  11 B :    0.051878

-------------------------------
LOEWDIN REDUCED ORBITAL CHARGES
-------------------------------
  0 B s       :     2.410077  s :     2.410077
      pz      :     0.518173  p :     1.982178
      px      :     0.756766
      py      :     0.707239
      dz2     :     0.058989  d :     0.716845
      dxz     :     0.096605
      dyz     :     0.094956
      dx2y2   :     0.230187
      dxy     :     0.236109
      f0      :     0.008441  f :     0.103926
      f+1     :     0.008242
      f-1     :     0.006560
      f+2     :     0.009729
      f-2     :     0.010003
      f+3     :     0.009558
      f-3     :     0.051393

  1 B s       :     2.410011  s :     2.410011
      pz      :     0.517127  p :     1.982351
      px      :     0.745472
      py      :     0.719752
      dz2     :     0.058772  d :     0.717217
      dxz     :     0.095537
      dyz     :     0.094597
      dx2y2   :     0.217102
      dxy     :     0.251208
      f0      :     0.008443  f :     0.103943
      f+1     :     0.007887
      f-1     :     0.007042
      f+2     :     0.008697
      f-2     :     0.010461
      f+3     :     0.009518
      f-3     :     0.051894

  2 B s       :     2.410171  s :     2.410171
      pz      :     0.516977  p :     1.982011
      px      :     0.695390
      py      :     0.769643
      dz2     :     0.058618  d :     0.716535
      dxz     :     0.093332
      dyz     :     0.096326
      dx2y2   :     0.254071
      dxy     :     0.214189
      f0      :     0.008424  f :     0.103919
      f+1     :     0.006289
      f-1     :     0.008694
      f+2     :     0.010688
      f-2     :     0.008448
      f+3     :     0.009647
      f-3     :     0.051728

  3 B s       :     2.640472  s :     2.640472
      pz      :     0.426500  p :     1.940262
      px      :     0.602023
      py      :     0.911738
      dz2     :     0.029251  d :     0.281274
      dxz     :     0.042641
      dyz     :     0.031426
      dx2y2   :     0.086083
      dxy     :     0.091872
      f0      :     0.005727  f :     0.057504
      f+1     :     0.005143
      f-1     :     0.005455
      f+2     :     0.002240
      f-2     :     0.005739
      f+3     :     0.009098
      f-3     :     0.024101

  4 B s       :     2.640283  s :     2.640283
      pz      :     0.427232  p :     1.940492
      px      :     0.772742
      py      :     0.740517
      dz2     :     0.029348  d :     0.281308
      dxz     :     0.030680
      dyz     :     0.043336
      dx2y2   :     0.092230
      dxy     :     0.085714
      f0      :     0.005702  f :     0.057522
      f+1     :     0.005407
      f-1     :     0.005228
      f+2     :     0.005598
      f-2     :     0.002383
      f+3     :     0.011654
      f-3     :     0.021549

  5 B s       :     2.579514  s :     2.579514
      pz      :     0.393457  p :     1.901522
      px      :     0.917460
      py      :     0.590604
      dz2     :     0.031952  d :     0.404504
      dxz     :     0.076040
      dyz     :     0.033271
      dx2y2   :     0.110290
      dxy     :     0.152951
      f0      :     0.006156  f :     0.062294
      f+1     :     0.006069
      f-1     :     0.004029
      f+2     :     0.004938
      f-2     :     0.003608
      f+3     :     0.016451
      f-3     :     0.021044

  6 B s       :     2.640371  s :     2.640371
      pz      :     0.425480  p :     1.940356
      px      :     0.831577
      py      :     0.683299
      dz2     :     0.029392  d :     0.281199
      dxz     :     0.028933
      dyz     :     0.044504
      dx2y2   :     0.092253
      dxy     :     0.086117
      f0      :     0.005737  f :     0.057504
      f+1     :     0.005427
      f-1     :     0.005229
      f+2     :     0.004540
      f-2     :     0.003219
      f+3     :     0.009086
      f-3     :     0.024266

  7 B s       :     2.640605  s :     2.640605
      pz      :     0.423900  p :     1.939833
      px      :     0.617953
      py      :     0.897980
      dz2     :     0.028986  d :     0.281151
      dxz     :     0.044244
      dyz     :     0.029214
      dx2y2   :     0.088418
      dxy     :     0.090289
      f0      :     0.005832  f :     0.057474
      f+1     :     0.005051
      f-1     :     0.005477
      f+2     :     0.002358
      f-2     :     0.005285
      f+3     :     0.011685
      f-3     :     0.021785

  8 B s       :     2.579079  s :     2.579079
      pz      :     0.391346  p :     1.902318
      px      :     0.647066
      py      :     0.863906
      dz2     :     0.031993  d :     0.404980
      dxz     :     0.039753
      dyz     :     0.068100
      dx2y2   :     0.135734
      dxy     :     0.129401
      f0      :     0.006202  f :     0.062310
      f+1     :     0.004379
      f-1     :     0.005766
      f+2     :     0.004007
      f-2     :     0.004194
      f+3     :     0.016471
      f-3     :     0.021291

  9 B s       :     2.640622  s :     2.640622
      pz      :     0.423862  p :     1.939900
      px      :     0.839332
      py      :     0.676706
      dz2     :     0.029049  d :     0.281152
      dxz     :     0.038664
      dyz     :     0.034716
      dx2y2   :     0.089359
      dxy     :     0.089364
      f0      :     0.005820  f :     0.057475
      f+1     :     0.005280
      f-1     :     0.005265
      f+2     :     0.004964
      f-2     :     0.002666
      f+3     :     0.009144
      f-3     :     0.024335

 10 B s       :     2.640445  s :     2.640445
      pz      :     0.424670  p :     1.940253
      px      :     0.882454
      py      :     0.633129
      dz2     :     0.029289  d :     0.281232
      dxz     :     0.035530
      dyz     :     0.037886
      dx2y2   :     0.086737
      dxy     :     0.091791
      f0      :     0.005758  f :     0.057486
      f+1     :     0.005442
      f-1     :     0.005184
      f+2     :     0.003672
      f-2     :     0.004023
      f+3     :     0.011747
      f-3     :     0.021660

 11 B s       :     2.579445  s :     2.579445
      pz      :     0.392869  p :     1.901734
      px      :     0.700093
      py      :     0.808771
      dz2     :     0.031950  d :     0.404647
      dxz     :     0.047562
      dyz     :     0.061362
      dx2y2   :     0.150262
      dxy     :     0.113510
      f0      :     0.006168  f :     0.062296
      f+1     :     0.004722
      f-1     :     0.005382
      f+2     :     0.003657
      f-2     :     0.004797
      f+3     :     0.016508
      f-3     :     0.021063



                      *****************************
                      * MAYER POPULATION ANALYSIS *
                      *****************************

  NA   - Mulliken gross atomic population
  ZA   - Total nuclear charge
  QA   - Mulliken gross atomic charge
  VA   - Mayer's total valence
  BVA  - Mayer's bonded valence
  FA   - Mayer's free valence

  ATOM       NA         ZA         QA         VA         BVA        FA
  0 B      4.7123     5.0000     0.2877     3.2278     3.2278     0.0000
  1 B      4.7110     5.0000     0.2890     3.2265     3.2265    -0.0000
  2 B      4.7106     5.0000     0.2894     3.2238     3.2238     0.0000
  3 B      5.1567     5.0000    -0.1567     3.3238     3.3238     0.0000
  4 B      5.1567     5.0000    -0.1567     3.3247     3.3247    -0.0000
  5 B      4.9750     5.0000     0.0250     3.3734     3.3734     0.0000
  6 B      5.1566     5.0000    -0.1566     3.3246     3.3246    -0.0000
  7 B      5.1574     5.0000    -0.1574     3.3233     3.3233    -0.0000
  8 B      4.9751     5.0000     0.0249     3.3734     3.3734    -0.0000
  9 B      5.1568     5.0000    -0.1568     3.3234     3.3234    -0.0000
 10 B      5.1571     5.0000    -0.1571     3.3243     3.3243    -0.0000
 11 B      4.9749     5.0000     0.0251     3.3728     3.3728     0.0000

  Mayer bond orders larger than 0.100000
B(  0-B ,  1-B ) :   0.5896 B(  0-B ,  2-B ) :   0.5885 B(  0-B ,  3-B ) :   0.5079 
B(  0-B ,  4-B ) :   0.5081 B(  0-B ,  5-B ) :   0.4436 B(  0-B , 11-B ) :   0.4442 
B(  1-B ,  2-B ) :   0.5877 B(  1-B ,  5-B ) :   0.4437 B(  1-B ,  6-B ) :   0.5081 
B(  1-B ,  7-B ) :   0.5075 B(  1-B ,  8-B ) :   0.4444 B(  2-B ,  8-B ) :   0.4442 
B(  2-B ,  9-B ) :   0.5073 B(  2-B , 10-B ) :   0.5075 B(  2-B , 11-B ) :   0.4435 
B(  3-B ,  4-B ) :   1.4057 B(  3-B , 11-B ) :   1.0939 B(  4-B ,  5-B ) :   1.0949 
B(  5-B ,  6-B ) :   1.0944 B(  6-B ,  7-B ) :   1.4057 B(  7-B ,  8-B ) :   1.0941 
B(  8-B ,  9-B ) :   1.0937 B(  9-B , 10-B ) :   1.4063 B( 10-B , 11-B ) :   1.0945 


-------
TIMINGS
-------

Total SCF time: 0 days 0 hours 1 min 4 sec 

Total time                  ....      64.115 sec
Sum of individual times     ....      61.346 sec  ( 95.7%)

SCF preparation             ....       1.510 sec  (  2.4%)
Fock matrix formation       ....      57.655 sec  ( 89.9%)
  Startup                   ....       0.042 sec  (  0.1% of F)
  Split-RI-J                ....       5.565 sec  (  9.7% of F)
  Chain of spheres X        ....      44.626 sec  ( 77.4% of F)
  XC integration            ....       9.333 sec  ( 16.2% of F)
    XC Preparation          ....       0.000 sec  (  0.0% of XC)
    Basis function eval.    ....       1.517 sec  ( 16.3% of XC)
    Density eval.           ....       2.189 sec  ( 23.5% of XC)
    XC-Functional eval.     ....       0.123 sec  (  1.3% of XC)
    XC-Potential eval.      ....       3.176 sec  ( 34.0% of XC)
Diagonalization             ....       0.000 sec  (  0.0%)
Density matrix formation    ....       0.333 sec  (  0.5%)
Total Energy calculation    ....       0.173 sec  (  0.3%)
Population analysis         ....       0.083 sec  (  0.1%)
[...]
     33      -0.036051  -0.089795   0.048592   0.253843  -0.054304  -0.276203
     34      -0.050345   0.053881   0.083896   0.360403  -0.038929  -0.386502
     35       0.000550  -0.004092  -0.001142  -0.007703  -0.028526   0.003797
                 30         31         32         33         34         35    
      0       0.351971  -0.292406  -0.156132   0.455826  -0.061571  -0.017292
      1       0.013872  -0.259815  -0.071036   0.207104   0.018656  -0.062195
      2      -0.098502   0.113407   0.020604  -0.097221   0.007718   0.006791
      3      -0.228385  -0.350290   0.139579  -0.408651   0.046711  -0.044435
      4      -0.042116   0.319173  -0.099634   0.291361   0.045362   0.046499
      5      -0.045693  -0.137614   0.018706  -0.092106   0.001255  -0.009690
      6       0.014449   0.181519   0.016775  -0.049279   0.015579   0.063311
      7       0.489263   0.078589   0.171110  -0.500120  -0.062483   0.015159
      8       0.140689   0.026503   0.018164  -0.090228  -0.009104   0.002775
      9      -0.298842   0.168306  -0.058159  -0.159988   0.032071   0.050828
     10      -0.029476  -0.111512   0.383463   0.092885  -0.407867  -0.264132
     11       0.083013  -0.046200  -0.022691   0.046930   0.008946   0.009491
     12       0.001950   0.221637   0.250545  -0.035416  -0.207424  -0.257597
     13      -0.169806   0.230310  -0.295962  -0.181452   0.254271   0.256500
     14       0.035075  -0.088812  -0.021270   0.047493   0.009491   0.006058
     15       0.056720  -0.291616   0.003484   0.000903   0.136986   0.396471
     16      -0.006497   0.028203   0.034779   0.011139  -0.036924  -0.030288
     17       0.003755   0.002525   0.022866   0.000370  -0.005177  -0.000830
     18      -0.097140   0.148551  -0.303114   0.000653   0.007526  -0.394072
     19      -0.052198  -0.311362  -0.242327  -0.184757   0.036714  -0.289033
     20      -0.000028   0.093335  -0.017902   0.047278   0.003572  -0.006304
     21       0.196388   0.282174   0.130985   0.175517  -0.022639   0.147755
     22      -0.109130   0.038102   0.364816   0.059786  -0.150916   0.441267
     23       0.056983   0.070831  -0.023747   0.044982   0.001110  -0.014128
     24      -0.092980  -0.078814  -0.031679  -0.010137  -0.130579   0.117443
     25       0.203058   0.175403  -0.014019  -0.004579   0.241810  -0.297604
     26      -0.003213   0.002676   0.023304   0.000546   0.003157   0.003887
     27      -0.217864  -0.018338   0.361122   0.160432   0.405133  -0.192644
     28      -0.216691  -0.191033  -0.141640   0.093106  -0.164413   0.108487
     29      -0.077259  -0.046030  -0.022767   0.044866  -0.012554   0.002513
     30       0.150695   0.082876  -0.381685  -0.138748  -0.466178   0.105066
     31      -0.307910   0.080511  -0.069090   0.122297  -0.108241  -0.001927
     32      -0.091219   0.012535  -0.018219   0.046711  -0.005939   0.004630
     33       0.163038  -0.053600   0.028280   0.008886   0.244384   0.025167
     34       0.227631  -0.076570  -0.020459  -0.006770   0.334031   0.077268
     35      -0.003599  -0.003157   0.022952   0.000379  -0.002476  -0.005193


-----------
IR SPECTRUM
-----------

 Mode   freq       eps      Int      T**2         TX        TY        TZ
       cm**-1   L/(mol*cm) km/mol    a.u.
----------------------------------------------------------------------------
  6:    199.93   0.000031    0.16  0.000049  ( 0.003928 -0.005805 -0.000189)
  7:    200.49   0.000031    0.16  0.000049  ( 0.005787  0.003904 -0.000439)
  8:    228.89   0.002447   12.37  0.003336  (-0.000450 -0.000306 -0.057756)
  9:    372.60   0.000000    0.00  0.000000  (-0.000015 -0.000089  0.000012)
 10:    405.39   0.000324    1.64  0.000249  ( 0.011623 -0.010687 -0.000000)
 11:    405.55   0.000325    1.64  0.000250  ( 0.010715  0.011632 -0.000140)
 12:    454.86   0.000046    0.23  0.000031  ( 0.000110  0.000020  0.005594)
 13:    472.87   0.000195    0.99  0.000129  ( 0.008046  0.008001 -0.000087)
 14:    473.01   0.000192    0.97  0.000127  (-0.007994  0.007918  0.000062)
 15:    517.07   0.000003    0.02  0.000002  (-0.000985  0.000928  0.000032)
 16:    517.38   0.000003    0.01  0.000002  (-0.000869 -0.000978  0.000028)
 17:    521.54   0.000000    0.00  0.000000  (-0.000097  0.000057 -0.000027)
 18:    534.37   0.000025    0.13  0.000015  (-0.000077  0.000057 -0.003827)
 19:    574.57   0.002032   10.27  0.001104  ( 0.032680 -0.005963 -0.000187)
 20:    574.87   0.002026   10.24  0.001100  ( 0.005958  0.032622 -0.000197)
 21:    629.60   0.000002    0.01  0.000001  ( 0.000105  0.000866 -0.000029)
 22:    629.63   0.000001    0.01  0.000001  (-0.000833  0.000087  0.000011)
 23:    693.01   0.000119    0.60  0.000054  (-0.000042 -0.000048 -0.007329)
 24:    827.41   0.000000    0.00  0.000000  ( 0.000067  0.000000 -0.000005)
 25:    930.66   0.009982   50.44  0.003347  (-0.049809  0.029428  0.000153)
 26:    930.83   0.010004   50.56  0.003354  ( 0.029429  0.049876 -0.000441)
 27:    975.24   0.004063   20.54  0.001300  ( 0.016621  0.031999 -0.000292)
 28:    975.31   0.004074   20.59  0.001304  (-0.032059  0.016607  0.000135)
 29:   1160.60   0.000000    0.00  0.000000  ( 0.000213 -0.000032 -0.000015)
 30:   1171.09   0.004940   24.97  0.001316  (-0.010435 -0.034749  0.000257)
 31:   1171.13   0.004945   24.99  0.001318  ( 0.034787 -0.010369 -0.000167)
 32:   1223.81   0.000071    0.36  0.000018  (-0.000045 -0.000028 -0.004259)
 33:   1280.78   0.001658    8.38  0.000404  ( 0.000147  0.000150  0.020098)
 34:   1339.89   0.001418    7.17  0.000330  ( 0.007657  0.016479 -0.000138)
 35:   1339.94   0.001415    7.15  0.000330  ( 0.016460 -0.007658 -0.000066)

* The epsilon (eps) is given for a Dirac delta lineshape.
** The dipole moment derivative (T) already includes vibrational overlap.

The first frequency considered to be a vibration is 6
The total number of vibrations considered is 30


--------------------------
THERMOCHEMISTRY AT 298.15K
--------------------------

Temperature         ...   298.15 K
Pressure            ...     1.00 atm
Total Mass          ...   129.72 AMU
Quasi RRHO          ...     True
Cut-Off Frequency   ...     1.00 cm^-1

Throughout the following assumptions are being made:
  (1) The electronic state is orbitally nondegenerate
  (2) There are no thermally accessible electronically excited states
  (3) Hindered rotations indicated by low frequency modes are not
      treated as such but are treated as vibrations and this may
      cause some error
  (4) All equations used are the standard statistical mechanics
      equations for an ideal gas
  (5) All vibrations are strictly harmonic

freq.     199.93  E(vib)   ...       0.35 
freq.     200.49  E(vib)   ...       0.35 
freq.     228.89  E(vib)   ...       0.32 
freq.     372.60  E(vib)   ...       0.21 
freq.     405.39  E(vib)   ...       0.19 
freq.     405.55  E(vib)   ...       0.19 
freq.     454.86  E(vib)   ...       0.16 
freq.     472.87  E(vib)   ...       0.15 
freq.     473.01  E(vib)   ...       0.15 
freq.     517.07  E(vib)   ...       0.13 
freq.     517.38  E(vib)   ...       0.13 
freq.     521.54  E(vib)   ...       0.13 
freq.     534.37  E(vib)   ...       0.13 
freq.     574.57  E(vib)   ...       0.11 
freq.     574.87  E(vib)   ...       0.11 
freq.     629.60  E(vib)   ...       0.09 
freq.     629.63  E(vib)   ...       0.09 
freq.     693.01  E(vib)   ...       0.07 
freq.     827.41  E(vib)   ...       0.04 
freq.     930.66  E(vib)   ...       0.03 
freq.     930.83  E(vib)   ...       0.03 
freq.     975.24  E(vib)   ...       0.03 
freq.     975.31  E(vib)   ...       0.03 
freq.    1160.60  E(vib)   ...       0.01 
freq.    1171.09  E(vib)   ...       0.01 
freq.    1171.13  E(vib)   ...       0.01 
freq.    1223.81  E(vib)   ...       0.01 
freq.    1280.78  E(vib)   ...       0.01 
freq.    1339.89  E(vib)   ...       0.01 
freq.    1339.94  E(vib)   ...       0.01 

------------
INNER ENERGY
------------

The inner energy is: U= E(el) + E(ZPE) + E(vib) + E(rot) + E(trans)
    E(el)   - is the total energy from the electronic structure calculation
              = E(kin-el) + E(nuc-el) + E(el-el) + E(nuc-nuc)
    E(ZPE)  - the the zero temperature vibrational energy from the frequency calculation
    E(vib)  - the the finite temperature correction to E(ZPE) due to population
              of excited vibrational states
    E(rot)  - is the rotational thermal energy
    E(trans)- is the translational thermal energy

Summary of contributions to the inner energy U:
Electronic energy                ...   -297.87422525 Eh
Zero point energy                ...      0.04950984 Eh      31.07 kcal/mol
Thermal vibrational correction   ...      0.00526921 Eh       3.31 kcal/mol
Thermal rotational correction    ...      0.00141627 Eh       0.89 kcal/mol
Thermal translational correction ...      0.00141627 Eh       0.89 kcal/mol
-----------------------------------------------------------------------
Total thermal energy                   -297.81661366 Eh


Summary of corrections to the electronic energy:
(perhaps to be used in another calculation)
Total thermal correction                  0.00810175 Eh       5.08 kcal/mol
Non-thermal (ZPE) correction              0.04950984 Eh      31.07 kcal/mol
-----------------------------------------------------------------------
Total correction                          0.05761159 Eh      36.15 kcal/mol


--------
ENTHALPY
--------

The enthalpy is H = U + kB*T
                kB is Boltzmann's constant
Total thermal energy              ...   -297.81661366 Eh 
Thermal Enthalpy correction       ...      0.00094421 Eh       0.59 kcal/mol
-----------------------------------------------------------------------
Total Enthalpy                    ...   -297.81566945 Eh


WARNING (ORCA/SYM): A non-planar off-center atom subset has been encountered
in function TSymmetryFinder::FilterSubsetShapes() which cannot occur under
regular conditions. The full point group may not be assigned correctly. If the
symmetry appears to be too low, please try increasing the cleaning tolerance
using option SymThresh in the %symmetry input block. If the problem persists,
you may post a message in the ORCA forum.

Note: Only C1 symmetry has been detected, increase convergence thresholds 
      if your molecule has a higher symmetry. Symmetry factor of 1.0 is   
      used for the rotational entropy correction. 
 

Note: Rotational entropy computed according to Herzberg 
Infrared and Raman Spectra, Chapter V,1, Van Nostrand Reinhold, 1945 
Point Group:  C1, Symmetry Number:   1  
Rotational constants in cm-1:     0.060623     0.060619     0.031089 

Vibrational entropy computed according to the QRRHO of S. Grimme
Chem.Eur.J. 2012 18 9955 using a reference frequency of 100.0 cm-1


-------
ENTROPY
-------

The entropy contributions are T*S = T*(S(el)+S(vib)+S(rot)+S(trans))
     S(el)   - electronic entropy
     S(vib)  - vibrational entropy
     S(rot)  - rotational entropy
     S(trans)- translational entropy
The entropies will be listed as multiplied by the temperature to get
units of energy

Electronic entropy                ...      0.00000000 Eh      0.00 kcal/mol
Vibrational entropy               ...      0.00797731 Eh      5.01 kcal/mol
Rotational entropy                ...      0.01379604 Eh      8.66 kcal/mol
Translational entropy             ...      0.01923977 Eh     12.07 kcal/mol
-----------------------------------------------------------------------
Final entropy term                ...      0.04101311 Eh     25.74 kcal/mol

In case the symmetry of your molecule has not been determined correctly
or in case you have a reason to use a different symmetry number we print 
out the resulting rotational entropy values for sn=1,12:

 non-linear molecules -----------------------------------
|  sn= 1 | S(rot)=       0.01379604 Eh      8.66 kcal/mol|
|  sn= 2 | S(rot)=       0.01314158 Eh      8.25 kcal/mol|
|  sn= 3 | S(rot)=       0.01275875 Eh      8.01 kcal/mol|
|  sn= 4 | S(rot)=       0.01248712 Eh      7.84 kcal/mol|
|  sn= 5 | S(rot)=       0.01227644 Eh      7.70 kcal/mol|
|  sn= 6 | S(rot)=       0.01210429 Eh      7.60 kcal/mol|
|  sn= 7 | S(rot)=       0.01195874 Eh      7.50 kcal/mol|
|  sn= 8 | S(rot)=       0.01183267 Eh      7.43 kcal/mol|
|  sn= 9 | S(rot)=       0.01172146 Eh      7.36 kcal/mol|
|  sn=10 | S(rot)=       0.01162198 Eh      7.29 kcal/mol|
|  sn=11 | S(rot)=       0.01153199 Eh      7.24 kcal/mol|
|  sn=12 | S(rot)=       0.01144983 Eh      7.18 kcal/mol|
 linear molecules ---------------------------------------
|  Dinfh | S(rot)=       0.00860297 Eh      5.40 kcal/mol|
|  Cinfv | S(rot)=       0.00925742 Eh      5.81 kcal/mol|
 --------------------------------------------------------


-------------------
GIBBS FREE ENERGY
-------------------

The Gibbs free energy is G = H - T*S

Total enthalpy                    ...   -297.81566945 Eh 
Total entropy correction          ...     -0.04101311 Eh    -25.74 kcal/mol
-----------------------------------------------------------------------
Final Gibbs free energy         ...   -297.85668256 Eh

For completeness - the Gibbs free energy minus the electronic energy
G-E(el)                           ...      0.01754269 Eh     11.01 kcal/mol


Maximum memory used throughout the entire PROP-calculation: 94.7 MB

--------------------------------
SUGGESTED CITATIONS FOR THIS RUN
--------------------------------

Below you find a list of papers that are relevant to this ORCA run
We neither can nor want to force you to cite these papers, but we appreciate if you do
You receive ORCA, which is the product of decades of hard work by many enthusiastic individuals, for free
The only thing we kindly ask in return is that you cite our papers,
We deeply appreciate it, if you show your appreciation for ORCA by not just citing the generic ORCA reference.

Please note that relegating all ORCA citations to the supporting information does *not* help us.
SI sections are not indexed - citations you put there will not count into any citation statistics
But we need these citations in order to attract the funding resources that allow us to do what we are doing

Therefore, if you are a happy ORCA user, please consider citing a few of the papers listed below in the main body of your paper

In addition to the list printed below, the program has created the file rank01_quasi_planar_nn1.70_perturb0.bibtex that contains the list in bibtex format
You can import this file easily into all common literature databanks and citation aid programs

It goes without saying that in many instances, there are alternative algorithms to achieve similar
results as the ones you have gotten from ORCA. It is, of course, also the case that in some instances
ORCA just re-implements algorithms worked out by others. We are fully aware of that and we are also
fully appreciative of our colleagues work. Hence this citation list should not be read as indicating
that the listed papers, which are focused on our own work, are the only ones worth citing. It simply
meant to make it easier for users to cite ORCA specific papers. It is not a substitute for doing your
own literature research and citing the relevant literature in a scientifically appropriate manner.

List of essential papers. We consider these as the minimum necessary citations

  1. Neese, F.
     Software update: the ORCA program system, version 6.0
     WIRES Comput. Molec. Sci. 2025 15(1), e70019
     doi.org/10.1002/wcms.70019

List of papers to cite with high priority. The work reported in these papers was absolutely
necessary for this run to complete.
Our perspective: the developers of density functionals and basis sets usually get cited in chemistry papers
Good! But without the algorithms to do something with them, the functionals or basis sets would not do anything.
Hence, in our opinion, the algorithm design and method developments papers are equally worthy of getting cited

  1. Neese, F.
     An improvement of the resolution of the identity approximation for the formation of the Coulomb matrix
     J. Comp. Chem. 2003 24(14), 1740-1747
     doi.org/10.1002/jcc.10318
  2. Neese, F.; Wennmohs, F.; Hansen, A.; Becker, U.
     Efficient, approximate and parallel Hartree-Fock and hybrid DFT calculations. A 'chain-of-spheres' algorithm for the Hartree-Fock exchange
     Chem. Phys. 2009 356(1-3), 98-109
     doi.org/10.1016/j.chemphys.2008.10.036
  3. Grimme, S.; Antony, J.; Ehrlich, S.; Krieg, H.
     A consistent and accurate ab initio parametrization of density functional dispersion correction (DFT-D) for the 94 elements H-Pu
     J. Chem. Phys. 2010 132 , 154104
     doi.org/10.1063/1.3382344
  4. Grimme, S.; Ehrlich, S.; Goerigk, L.
     Effect of the damping function in dispersion corrected density functional theory
     J. Comput. Chem. 2011 32(7), 1456-1465
     doi.org/10.1002/jcc.21759
  5. Bykov, D.; Petrenko, T.; Izsak, R.; Kossmann, S.; Becker, U.; Valeev, E.; Neese, F.
     Efficient implementation of the analytic second derivatives of Hartree-Fock and hybrid DFT energies: a detailed analysis of different approximations
     Molec. Phys. 2015 113 , 1961-1977
     doi.org/10.1080/00268976.2015.1025114
  6. Helmich-Paris, B.; de Souza, B.; Neese, F.; Izsák, R.
     An improved chain of spheres for exchange algorithm
     J. Chem. Phys. 2021 155(10), 104109
     doi.org/10.1063/5.0058766
  7. Neese, F.
     The SHARK Integral Generation and Digestion System
     J. Comp. Chem. 2022 44(3), 381
     doi.org/10.1002/jcc.26942

List of suggested additional citations. These are papers that are important in the 'surrounding' of 
of this run, or papers that preceded the highly important papers. If you like your results we are grateful for a citation.

  1. Izsak, R.; Neese, F.
     An overlap fitted chain of spheres exchange method
     J. Chem. Phys. 2011 135 , 144105
     doi.org/10.1063/1.3646921
  2. Izsak, R.; Hansen, A.; Neese, F.
     The resolution of identity and chain of spheres approximations for the LPNO-CCSD singles Fock term
     Molec. Phys. 2012 110 , 2413-2417
     doi.org/10.1080/00268976.2012.687466
  3. Neese, F.
     The ORCA program system
     WIRES Comput. Molec. Sci. 2012 2(1), 73-78
     doi.org/10.1002/wcms.81
  4. Izsak, R.; Neese, F.; Klopper, W.
     Robust fitting techniques in the chain of spheres approximation to the Fock exchange: The role of the complementary space
     J. Chem. Phys. 2013 139 , 
     doi.org/10.1063/1.4819264
  5. Neese, F.
     Software update: the ORCA program system, version 4.0
     WIRES Comput. Molec. Sci. 2018 8(1), 1-6
     doi.org/10.1002/wcms.1327
  6. Neese, F.; Wennmohs, F.; Becker, U.; Riplinger, C.
     The ORCA quantum chemistry program package
     J. Chem. Phys. 2020 152(22), 224108
     doi.org/10.1063/5.0004608
  7. Neese, F.
     Software update: The ORCA program system—Version 5.0
     WIRES Comput. Molec. Sci. 2022 12(1), e1606
     doi.org/10.1002/wcms.1606

List of optional additional citations

  1. Neese, F.
     Approximate second-order SCF convergence for spin unrestricted wavefunctions
     Chem. Phys. Lett. 2000 325(1-3), 93-98
     doi.org/10.1016/s0009-2614(00)00662-x

Timings for individual modules:

Sum of individual times          ...     1276.625 sec (=  21.277 min)
Startup calculation              ...       28.081 sec (=   0.468 min)   2.2 %
SCF iterations                   ...      356.868 sec (=   5.948 min)  28.0 %
Property integrals               ...      131.917 sec (=   2.199 min)  10.3 %
SCF Response                     ...       98.365 sec (=   1.639 min)   7.7 %
Property calculations            ...      430.517 sec (=   7.175 min)  33.7 %
SCF Gradient evaluation          ...      230.610 sec (=   3.843 min)  18.1 %
Geometry relaxation              ...        0.267 sec (=   0.004 min)   0.0 %
                             ****ORCA TERMINATED NORMALLY****
TOTAL RUN TIME: 0 days 0 hours 21 minutes 23 seconds 339 msec
