
                                 *****************
                                 * O   R   C   A *
                                 *****************

                                            #,                                       
                                            ###                                      
                                            ####                                     
                                            #####                                    
                                            ######                                   
                                           ########,                                 
                                     ,,################,,,,,                         
                               ,,#################################,,                 
                          ,,##########################################,,             
                       ,#########################################, ''#####,          
                    ,#############################################,,   '####,        
                  ,##################################################,,,,####,       
                ,###########''''           ''''###############################       
              ,#####''   ,,,,##########,,,,          '''####'''          '####       
            ,##' ,,,,###########################,,,                        '##       
           ' ,,###''''                  '''############,,,                           
         ,,##''                                '''############,,,,        ,,,,,,###''
      ,#''                                            '''#######################'''  
     '                                                          ''''####''''         
             ,#######,   #######,   ,#######,      ##                                
            ,#'     '#,  ##    ##  ,#'     '#,    #''#        ,####,    ,#,          
            ##       ##  ##   ,#'  ##            #'  '#       #'       ,# #          
            ##       ##  #######   ##           ,######,      #####,      #          
            '#,     ,#'  ##    ##  '#,     ,#' ,#      #,     #,   #      #          
             '#######'   ##     ##  '#######'  #'      '#     '####' #    #          



                #########################################################
                #                        -***-                          #
                #          Department of theory and spectroscopy        #
                #                                                       #
                #                      Frank Neese                      #
                #                                                       #
                #     Directorship, Architecture, Infrastructure        #
                #                    SHARK, DRIVERS                     #
                #        Core code/Algorithms in most modules           #
                #                                                       #
                #        Max Planck Institute fuer Kohlenforschung      #
                #                Kaiser Wilhelm Platz 1                 #
                #                 D-45470 Muelheim/Ruhr                 #
                #                      Germany                          #
                #                                                       #
                #                  All rights reserved                  #
                #                        -***-                          #
                #########################################################


                         Program Version 6.1.1  -  RELEASE   -
                                (GIT: $487d211c$)
                          ($2025-11-21 10:33:24 +0100$)
                                                                         
                                  - NO-DMRG VERSION -                    
                                                                         


 With contributions from (in alphabetic order):
[Max-Planck-Institut fuer Kohlenforschung]                               
  Daniel Aravena         : Magnetic Suceptibility                        
  Michael Atanasov       : Ab Initio Ligand Field Theory (pilot matlab implementation)
  Alexander A. Auer      : GIAO ZORA, VPT2 properties, NMR spectrum      
  Ute Becker             : All parallelization in ORCA, NUMFREQ, NUMCALC 
  Giovanni Bistoni       : ED, misc. LED, open-shell LED, HFLD           
  Dmytro Bykov           : pre 5.0 version of the SCF Hessian            
  Marcos Casanova-Páez   : Triplet and SCS-CIS(D). UHF-(DLPNO)-IP/EA/STEOM-CCSD. UHF-CVS-IP/STEOM-CCSD   
  Vijay G. Chilkuri      : MRCI spin determinant printing, contributions to CSF-ICE 
  Pauline Colinet        : FMM embedding                                 
  Dipayan Datta          : RHF DLPNO-CCSD density                        
  Achintya Kumar Dutta   : EOM-CC, STEOM-CC                              
  Nicolas Foglia         : Exact transition moments, OPA infrastructure, MCD improvements    
  Dmitry Ganyushin       : Spin-Orbit,Spin-Spin,Magnetic field MRCI      
  Miquel Garcia-Rates    : C-PCM and meta-GGA Hessian, CCSD/C-PCM, Gaussian charge scheme 
  Tiago L. C. Gouveia    : GS-ROHF, GS-ROCIS                             
  Yang Guo               : DLPNO-NEVPT2, F12-NEVPT2, CIM, IAO-localization        
  Andreas Hansen         : Spin unrestricted coupled pair/coupled cluster methods 
  Ingolf Harden          : AUTO-CI MPn and infrastructure                
  Benjamin Helmich-Paris : MC-RPA, TRAH-(SCF,CASSCF), AVAS, COSX integrals, SCF dyn. polar., MC-PDFT, srDFT 
  Lee Huntington         : MR-EOM, pCC                                   
  Robert Izsak           : Overlap fitted RIJCOSX, COSX-SCS-MP3, EOM     
  Riya Kayal             : Wick's Theorem for AUTO-CI, AUTO-CI UHF-CCSDT 
  Emily Kempfer          : AUTO-CI RHF CISDT and CCSDT, approximate NEVPT4
  Christian Kollmar      : KDIIS, OOCD, Brueckner-CCSD(T), CCSD density, CASPT2, CASPT2-K, improved NEVPT2 
  Axel Koslowski         : Symmetry handling                             
  Simone Kossmann        : meta-GGA functionals, TD-DFT gradient, OOMP2, (MP2 Hessian; deprecated post 5.0) 
  Lucas Lang             : DCDCAS, Hyperfine gauge corrections, ICE-SOC+SSC
  Marvin Lechner         : AUTO-CI (C++ implementation), FIC-MRCC        
  Spencer Leger          : CASSCF response                               
  Dagmar Lenk            : GEPOL surface, SMD, ORCA-2-JSON               
  Dimitrios Liakos       : Extrapolation schemes; Compound Job, Property file
  Dimitrios Manganas     : Further ROCIS development; embedding schemes. LFT, Crystal Embedding 
  Dimitrios Pantazis     : SARC Basis sets                               
  Anastasios Papadopoulos: AUTO-CI, single reference methods and gradients 
  Taras Petrenko         : pre 6.0 DFT Hessian and TD-DFT gradient,  ECA, NRVS 
  Petra Pikulova         : Analytic Raman intensities                    
  Peter Pinski           : DLPNO-MP2, DLPNO-MP2 Gradient                 
  Shashank Vittal Rao    : ES-AILFT, MagRelax                            
  Christoph Reimann      : Effective Core Potentials                     
  Marius Retegan         : Local ZFS, SOC                                
  Christoph Riplinger    : Optimizer, TS searches, QM/MM, DLPNO-CCSD(T), (RO)-DLPNO pert. Triples 
  Michael Roemelt        : Original ROCIS implementation, recursive CI coupling coefficients
  Masaaki Saitow         : Open-shell DLPNO-CCSD energy and density      
  Barbara Sandhoefer     : DKH picture change effects                    
  Yorick L. A. Schmerwitz: GMF and freeze-and-release deltaSCF, NEB S-IDPP initial path                    
  Kantharuban Sivalingam : CASSCF convergence/infrastructure, NEVPT2, NEVPT3, NEVPT4(SD), FIC-MRCI and CEPA variants
  Bernardo de Souza      : ESD, SOC TD-DFT                               
  Georgi L. Stoychev     : AutoAux, RI-MP2 NMR, DLPNO-MP2 response, X2C  
  Van Anh Tran           : RI-MP2 g-tensors                              
  Willem Van den Heuvel  : Paramagnetic NMR                              
  Zikuan Wang            : NOTCH, Electric field optimization            
  Frank Wennmohs         : Technical directorship and infrastructure     
  Hang Xu                : AUTO-CI-Response properties                   
                                                                         
[FACCTs GmbH]                                                            
  Markus Bursch, Nicolas Foglia, Miquel Garcia-Rates, Ingolf Harden, Hagen Neugebauer, Anastasios Papadopoulos, 
  Christoph Riplinger, Bernardo de Souza, Georgi L. Stoychev                                                    
                                                                 
  APM, various basis sets, CI-OPT, improved COSX, DLPNO-Multilevel,           
  DOCKER, DRACO, updates on ESD, Fragmentator, GOAT, IRC, LR-CPCM, L-BFGS, MBIS, meta-GGA TD-DFT gradient, ML-optimized integration grids, 
  MM, NACMEs, nearIR, NEB, NEB-TS, NL-DFT gradient (VV10), 2- and 3-layer-ONIOM, interface openCOSMO-RS, QMMM,   
  Crystal-QMMM, RESP, rigid body optimization, SF, symmetry and pop. for TD-DFT, various functionals, SOLVATOR                                   
                                                                         
[Other institutions]                                                     
  V. Asgeirsson          : NEB                                           
  Christoph Bannwarth    : sTDA-DFT, sTD-DFT, PBEh-3c, B97-3c, D3        
  Giovanni Bistoni       : ETS/NOCV, ADLD/ADEX, COVALED                  
  Martin Brehm           : Molecular dynamics                            
  Ronald Cardenas        : ETS/NOCV                                      
  Martina Colucci        : COVALED                                       
  Sebastian Ehlert       : rSCAN, r2SCAN, r2SCAN-3c, D4, dhf basis sets  
  Marvin Friede          : D4 for Fr, Ra, Ac-Lr                          
  Lars Goerigk           : TD-DFT with DH, B97 family of functionals     
  Stefan Grimme          : VdW corrections, initial TS optimization, DFT functionals, gCP, sTDA/sTD-DF 
  Waldemar Hujo          : DFT-NL                                        
  H. Jonsson             : NEB                                           
  Holger Kruse           : gCP                                           
  Marcel Mueller         : wB97X-3c, vDZP basis set                      
  Hagen Neugebauer       : wr2SCAN, Native XTB                           
  Gianluca Regni         : ADLD/ADEX                                     
  Tobias Risthaus        : pre 6.0 range-separated hybrid DFT and stability analysis
  Lukas Wittmann         : regularized MP2, r2SCAN double-hybrids, wr2SCAN        
                                                                         
We gratefully acknowledge several colleagues who have allowed us to      
interface, adapt or use parts of their codes:                            
  Ed Valeev, F. Pavosevic, A. Kumar             : LibInt (2-el integral package), F12 methods 
  Garnet Chan, S. Sharma, J. Yang, R. Olivares  : DMRG                   
  Ulf Ekstrom                                   : XCFun DFT Library      
  Mihaly Kallay                                 : mrcc  (arbitrary order and MRCC methods)
  Frank Weinhold                                : gennbo (NPA and NBO analysis)           
  Simon Mueller                                 : openCOSMO-RS                            
  Christopher J. Cramer and Donald G. Truhlar   : smd solvation model                     
  S Lehtola, MJT Oliveira, MAL Marques          : LibXC Library                           
  Liviu Ungur et al                             : ANISO software                          


 Your calculation uses the libint2 library for the computation of 2-el integrals
 For citations please refer to: http://libint.valeyev.net

 Your ORCA version has been built with support for libXC version: 7.0.0
 For citations please refer to: https://libxc.gitlab.io

 This ORCA versions uses:
   CBLAS   interface :  Fast vector & matrix operations
   LAPACKE interface :  Fast linear algebra routines
   SCALAPACK package :  Parallel linear algebra routines
   Shared memory     :  Shared parallel matrices
   BLAS/LAPACK       :  OpenBLAS 0.3.29  USE64BITINT DYNAMIC_ARCH NO_AFFINITY Zen SINGLE_THREADED
        Core in use  :  Zen
   Copyright (c) 2011-2014, The OpenBLAS Project


  ***********************************
  * Starting time: Thu Apr 23 15:08:54 2026
  * Host name:     vmi3233575
  * Process ID:    1294782
  * Working dir.:  /root/b12_scan/jobs/hex_antiprism_nn2.00_perturb1
  ***********************************

NOTE: MaxCore=2500 MB was set to SCF,MP2,MDCI,CIPSI,MRCI,RASCI and CIS
      => If you want to overwrite this, your respective input block should be placed after the MaxCore statement
Your calculation utilizes the atom-pairwise dispersion correction
with the Becke-Johnson damping scheme (D3BJ)


================================================================================

----- Orbital basis set information -----
Your calculation utilizes the basis: def2-SVP
   F. Weigend and R. Ahlrichs, Phys. Chem. Chem. Phys. 7, 3297 (2005).

----- AuxJ basis set information -----
Your calculation utilizes the auxiliary basis: def2/J
   H-Rn: F. Weigend, Phys. Chem. Chem. Phys. 8, 1057 (2006).
   Fr-Lr: K. Eichkorn, F. Weigend, O. Treutler, R. Ahlrichs; Theor. Chem. Acc. 97, 119 (1997).

================================================================================
                                        WARNINGS
                       Please study these warnings very carefully!
================================================================================


WARNING: Geometry Optimization
  ===> : Switching off AutoStart
         For restart on a previous wavefunction, please use MOREAD

================================================================================
                                       INPUT FILE
================================================================================
NAME = hex_antiprism_nn2.00_perturb1.inp
|  1> ! BP86 def2-SVP def2/J RI Opt TightSCF D3BJ
|  2> ! SlowConv
|  3> 
|  4> %pal nprocs 8 end
|  5> %maxcore 2500
|  6> 
|  7> %geom
|  8>   MaxIter 300
|  9> end
| 10> 
| 11> * xyz 0 1
| 12> B      2.15077375      0.12324272      0.88914001
| 13> B      0.85399448      1.95353539      0.90653064
| 14> B     -1.13001105      1.90489972      0.89426031
| 15> B     -2.05481625      0.00426334      0.92158140
| 16> B     -1.15993618     -1.84216850      0.76725655
| 17> B      1.13929499     -1.81177369      0.79570594
| 18> B      1.70044574      1.01088923     -0.83835312
| 19> B     -0.04134044      2.29304570     -0.68856580
| 20> B     -2.22440638      0.76611608     -0.86579026
| 21> B     -1.88106057     -1.01742161     -0.80697616
| 22> B      0.31767581     -2.26573924     -0.89621520
| 23> B      2.12414775     -0.95246261     -0.74011494
| 24> *
| 25> 
| 26>                          ****END OF INPUT****
================================================================================

                       *****************************
                       * Geometry Optimization Run *
                       *****************************

Geometry optimization settings:
Update method            Update   .... BFGS
Choice of coordinates    CoordSys .... (2022) Redundant Internals
Initial Hessian          InHess   .... Almloef's Model
Max. no of cycles        MaxIter  .... 300

Convergence Tolerances:
Energy Change            TolE     ....  5.0000e-06 Eh
Max. Gradient            TolMAXG  ....  3.0000e-04 Eh/bohr
RMS Gradient             TolRMSG  ....  1.0000e-04 Eh/bohr
Max. Displacement        TolMAXD  ....  4.0000e-03 bohr
RMS Displacement         TolRMSD  ....  2.0000e-03 bohr
Strict Convergence                .... False

------------------------------------------------------------------------------
                        ORCA OPTIMIZATION COORDINATE SETUP
------------------------------------------------------------------------------

The optimization will be done in redundant internal coordinates (2022)
Making redundant internal coordinates   ...  (2022 redundants) done
Evaluating the initial hessian          ...  (Almloef) done
Evaluating the coordinates              ...  done
Calculating the B-matrix                .... done
Calculating the G-matrix                .... done
The number of degrees of freedom        ....  198

    -----------------------------------------------------------------
                    Redundant Internal Coordinates


    -----------------------------------------------------------------
         Definition                    Initial Value    Approx d2E/dq
    -----------------------------------------------------------------
      1. B(B   1,B   0)                  2.2432         0.036489   
      2. B(B   2,B   1)                  1.9846         0.094333   
      3. B(B   3,B   2)                  2.1139         0.058680   
      4. B(B   4,B   3)                  2.0577         0.072140   
      5. B(B   5,B   4)                  2.2996         0.029659   
      6. B(B   6,B   1)                  2.1563         0.050208   
      7. B(B   6,B   0)                  1.9937         0.091236   
      8. B(B   7,B   6)                  2.1680         0.048099   
      9. B(B   7,B   2)                  1.9599         0.103309   
     10. B(B   7,B   1)                  1.8604         0.148875   
     11. B(B   8,B   3)                  1.9504         0.106996   
     12. B(B   8,B   7)                  2.6700         0.010000   
     13. B(B   8,B   2)                  2.3648         0.023342   
     14. B(B   9,B   3)                  2.0154         0.084245   
     15. B(B   9,B   8)                  1.8172         0.174479   
     16. B(B   9,B   4)                  1.9179         0.120532   
     17. B(B  10,B   9)                  2.5300         0.012724   
     18. B(B  10,B   5)                  1.9349         0.113256   
     19. B(B  10,B   4)                  2.2649         0.033689   
     20. B(B  11,B   6)                  2.0110         0.085642   
     21. B(B  11,B   5)                  2.0167         0.083851   
     22. B(B  11,B   0)                  1.9525         0.106148   
     23. A(B   6,B   0,B  11)           61.2620         0.245506   
     24. A(B   1,B   0,B  11)          116.6225         0.216188   
     25. A(B   1,B   0,B   6)           60.8480         0.211904   
     26. A(B   0,B   1,B   7)          114.8637         0.226309   
     27. A(B   6,B   1,B   7)           64.8431         0.236595   
     28. A(B   2,B   1,B   6)          112.1297         0.222113   
     29. A(B   2,B   1,B   7)           61.1888         0.259241   
     30. A(B   0,B   1,B   2)          123.9085         0.212836   
     31. A(B   0,B   1,B   6)           53.8506         0.196363   
     32. A(B   1,B   2,B   7)           56.2786         0.245728   
     33. A(B   3,B   2,B   8)           51.2572         0.189523   
     34. A(B   3,B   2,B   7)          115.5642         0.229761   
     35. A(B   1,B   2,B   8)          118.6227         0.200926   
     36. A(B   7,B   2,B   8)           75.6028         0.203253   
     37. A(B   1,B   2,B   3)          117.3425         0.226895   
     38. A(B   4,B   3,B   9)           56.1711         0.229841   
     39. A(B   8,B   3,B   9)           54.5159         0.242984   
     40. A(B   2,B   3,B   8)           71.0330         0.230883   
     41. A(B   2,B   3,B   9)          114.0162         0.223410   
     42. A(B   4,B   3,B   8)          108.6392         0.237672   
     43. A(B   2,B   3,B   4)          127.9951         0.218772   
     44. A(B   3,B   4,B   9)           60.8014         0.241735   
     45. A(B   5,B   4,B   9)          112.3585         0.213901   
     46. A(B   5,B   4,B  10)           50.1542         0.182597   
     47. A(B   3,B   4,B   5)          114.9637         0.200201   
     48. A(B   9,B   4,B  10)           73.9114         0.217555   
     49. A(B   3,B   4,B  10)          120.4393         0.203455   
     50. A(B  10,B   5,B  11)           68.9868         0.244813   
     51. A(B   4,B   5,B  11)          118.9783         0.204053   
     52. A(B   4,B   5,B  10)           63.9927         0.212153   
     53. A(B   0,B   6,B  11)           58.3587         0.238084   
     54. A(B   7,B   6,B  11)          138.0138         0.217974   
     55. A(B   0,B   6,B   7)          112.6381         0.219834   
     56. A(B   1,B   6,B  11)          118.0334         0.219232   
     57. A(B   0,B   6,B   1)           65.3014         0.221111   
     58. A(B   1,B   6,B   7)           50.9632         0.203291   
     59. A(B   1,B   7,B   2)           62.5326         0.262779   
     60. A(B   2,B   7,B   8)           59.0807         0.177649   
     61. A(B   1,B   7,B   8)          110.2450         0.185292   
     62. A(B   6,B   7,B   8)          108.3062         0.163564   
     63. A(B   2,B   7,B   6)          112.6405         0.223567   
     64. A(B   1,B   7,B   6)           64.1937         0.235169   
     65. A(B   2,B   8,B   7)           45.3165         0.152308   
     66. A(B   7,B   8,B   9)          113.8695         0.188813   
     67. A(B   3,B   8,B   7)           95.2480         0.178355   
     68. A(B   2,B   8,B   9)          111.1677         0.217642   
     69. A(B   2,B   8,B   3)           57.7098         0.204163   
     70. A(B   3,B   8,B   9)           64.5662         0.270570   
     71. A(B   8,B   9,B  10)          130.3402         0.201136   
     72. A(B   4,B   9,B  10)           59.3366         0.192130   
     73. A(B   3,B   9,B  10)          110.8122         0.184099   
     74. A(B   4,B   9,B   8)          121.3088         0.275532   
     75. A(B   3,B   9,B   8)           60.9179         0.261007   
     76. A(B   3,B   9,B   4)           63.0275         0.247193   
     77. A(B   4,B  10,B   9)           46.7519         0.166282   
     78. A(B   5,B  10,B   9)          102.8520         0.190687   
     79. A(B   4,B  10,B   5)           65.8532         0.215756   
     80. A(B   0,B  11,B   5)           66.7929         0.242544   
     81. A(B   5,B  11,B   6)          110.5069         0.235262   
     82. A(B   0,B  11,B   6)           60.3794         0.243280   
     83. D(B   2,B   1,B   0,B   6)     94.0750         0.010000   
     84. D(B   7,B   1,B   0,B   6)     23.2529         0.010000   
     85. D(B   7,B   1,B   0,B  11)     -3.1843         0.010000   
     86. D(B   2,B   1,B   0,B  11)     67.6378         0.010000   
     87. D(B   6,B   1,B   0,B  11)    -26.4372         0.010000   
     88. D(B   7,B   2,B   1,B   6)    -41.6339         0.010000   
     89. D(B   7,B   2,B   1,B   0)   -102.0337         0.010000   
     90. D(B   3,B   2,B   1,B   7)    103.8240         0.010000   
     91. D(B   3,B   2,B   1,B   6)     62.1900         0.010000   
     92. D(B   3,B   2,B   1,B   0)      1.7903         0.010000   
     93. D(B   8,B   2,B   1,B   7)     45.1857         0.010000   
     94. D(B   4,B   3,B   2,B   1)     -6.8248         0.010000   
     95. D(B   4,B   3,B   2,B   7)     56.7224         0.010000   
     96. D(B   8,B   3,B   2,B   1)   -106.0537         0.010000   
     97. D(B   8,B   3,B   2,B   7)    -42.5064         0.010000   
     98. D(B   9,B   3,B   2,B   1)    -71.6532         0.010000   
     99. D(B   4,B   3,B   2,B   8)     99.2288         0.010000   
    100. D(B   9,B   4,B   3,B   2)    -95.6354         0.010000   
    101. D(B   5,B   4,B   3,B   8)     87.2126         0.010000   
    102. D(B  10,B   4,B   3,B   9)     45.8448         0.010000   
    103. D(B  10,B   4,B   3,B   8)     30.3180         0.010000   
    104. D(B  10,B   4,B   3,B   2)    -49.7906         0.010000   
    105. D(B   9,B   4,B   3,B   8)    -15.5268         0.010000   
    106. D(B  11,B   5,B   4,B   9)      0.6085         0.010000   
    107. D(B  10,B   5,B   4,B   9)    -42.8155         0.010000   
    108. D(B  10,B   5,B   4,B   3)   -109.8382         0.010000   
    109. D(B  11,B   5,B   4,B   3)    -66.4142         0.010000   
    110. D(B  11,B   5,B   4,B  10)     43.4240         0.010000   
    111. D(B   7,B   6,B   0,B  11)    133.5507         0.010000   
    112. D(B   1,B   6,B   0,B  11)    153.0042         0.010000   
    113. D(B  11,B   6,B   0,B   1)   -153.0042         0.010000   
    114. D(B   7,B   6,B   1,B   2)     40.0257         0.010000   
    115. D(B  11,B   6,B   1,B   7)   -130.7237         0.010000   
    116. D(B   0,B   6,B   1,B   7)   -156.6883         0.010000   
    117. D(B   0,B   6,B   1,B   2)   -116.6625         0.010000   
    118. D(B   7,B   6,B   0,B   1)    -19.4535         0.010000   
    119. D(B  11,B   6,B   1,B   0)     25.9646         0.010000   
    120. D(B  11,B   6,B   1,B   2)    -90.6979         0.010000   
    121. D(B   8,B   7,B   6,B   0)    -81.2485         0.010000   
    122. D(B   2,B   7,B   6,B  11)     49.3857         0.010000   
    123. D(B   2,B   7,B   6,B   0)    -17.8909         0.010000   
    124. D(B   1,B   7,B   6,B  11)     90.2027         0.010000   
    125. D(B   8,B   7,B   2,B   1)    139.9922         0.010000   
    126. D(B   6,B   7,B   2,B   8)    -98.4462         0.010000   
    127. D(B   6,B   7,B   2,B   3)    -65.4840         0.010000   
    128. D(B   6,B   7,B   2,B   1)     41.5460         0.010000   
    129. D(B   1,B   7,B   2,B   8)   -139.9922         0.010000   
    130. D(B   8,B   7,B   1,B   6)    101.1582         0.010000   
    131. D(B   6,B   7,B   1,B   0)    -20.6215         0.010000   
    132. D(B   6,B   7,B   1,B   2)   -137.1626         0.010000   
    133. D(B   2,B   7,B   1,B   0)    116.5412         0.010000   
    134. D(B   8,B   7,B   1,B   2)    -36.0045         0.010000   
    135. D(B   1,B   7,B   6,B   0)     22.9261         0.010000   
    136. D(B   2,B   7,B   6,B   1)    -40.8170         0.010000   
    137. D(B   2,B   7,B   1,B   6)    137.1626         0.010000   
    138. D(B   1,B   7,B   2,B   3)   -107.0299         0.010000   
    139. D(B   7,B   8,B   2,B   1)    -37.5293         0.010000   
    140. D(B   9,B   8,B   2,B   3)    -37.8618         0.010000   
    141. D(B   9,B   8,B   2,B   7)    103.1406         0.010000   
    142. D(B   9,B   8,B   2,B   1)     65.6113         0.010000   
    143. D(B   3,B   8,B   2,B   7)    141.0023         0.010000   
    144. D(B   9,B   8,B   3,B   4)     15.8481         0.010000   
    145. D(B   3,B   8,B   2,B   1)    103.4730         0.010000   
    146. D(B   9,B   8,B   7,B   6)      9.1695         0.010000   
    147. D(B   9,B   8,B   7,B   2)    -96.7614         0.010000   
    148. D(B   9,B   8,B   7,B   1)    -59.3177         0.010000   
    149. D(B   3,B   8,B   7,B   6)     73.6405         0.010000   
    150. D(B   3,B   8,B   7,B   2)    -32.2904         0.010000   
    151. D(B   3,B   8,B   7,B   1)      5.1533         0.010000   
    152. D(B   7,B   8,B   3,B   9)   -113.9718         0.010000   
    153. D(B   7,B   8,B   3,B   4)    -98.1237         0.010000   
    154. D(B   2,B   8,B   3,B   9)   -140.6712         0.010000   
    155. D(B   2,B   8,B   3,B   4)   -124.8230         0.010000   
    156. D(B   9,B   8,B   3,B   2)    140.6712         0.010000   
    157. D(B  10,B   9,B   8,B   3)    -93.5000         0.010000   
    158. D(B   4,B   9,B   8,B   2)     16.1047         0.010000   
    159. D(B   4,B   9,B   8,B   3)    -18.9616         0.010000   
    160. D(B   3,B   9,B   8,B   7)     84.2793         0.010000   
    161. D(B  10,B   9,B   4,B   3)    139.9258         0.010000   
    162. D(B   8,B   9,B   4,B   5)    -88.4524         0.010000   
    163. D(B   8,B   9,B   4,B  10)   -121.3458         0.010000   
    164. D(B   8,B   9,B   4,B   3)     18.5799         0.010000   
    165. D(B   3,B   9,B   4,B   5)   -107.0323         0.010000   
    166. D(B   3,B   9,B   4,B  10)   -139.9258         0.010000   
    167. D(B  10,B   9,B   3,B   8)    125.5213         0.010000   
    168. D(B   3,B   9,B   8,B   2)     35.0663         0.010000   
    169. D(B  10,B   9,B   3,B   4)    -36.3290         0.010000   
    170. D(B   8,B   9,B   3,B   2)    -41.0080         0.010000   
    171. D(B   8,B   9,B   3,B   4)   -161.8503         0.010000   
    172. D(B   4,B   9,B   8,B   7)     65.3177         0.010000   
    173. D(B   4,B   9,B   3,B   2)    120.8423         0.010000   
    174. D(B   4,B   9,B   3,B   8)    161.8503         0.010000   
    175. D(B   4,B  10,B   9,B   8)    106.8017         0.010000   
    176. D(B   5,B  10,B   9,B   8)     69.0481         0.010000   
    177. D(B   5,B  10,B   9,B   4)    -37.7535         0.010000   
    178. D(B   5,B  10,B   9,B   3)      0.1114         0.010000   
    179. D(B   9,B  10,B   5,B   4)     29.2575         0.010000   
    180. D(B   9,B  10,B   5,B  11)   -110.6389         0.010000   
    181. D(B   4,B  10,B   5,B  11)   -139.8964         0.010000   
    182. D(B   9,B  10,B   4,B   5)   -139.1435         0.010000   
    183. D(B   9,B  10,B   4,B   3)    -40.6790         0.010000   
    184. D(B   4,B  10,B   9,B   3)     37.8649         0.010000   
    185. D(B   5,B  10,B   4,B   9)    139.1435         0.010000   
    186. D(B   5,B  10,B   4,B   3)     98.4645         0.010000   
    187. D(B   5,B  11,B   6,B   7)    -43.6500         0.010000   
    188. D(B   5,B  11,B   6,B   1)     17.9902         0.010000   
    189. D(B   5,B  11,B   6,B   0)     45.8439         0.010000   
    190. D(B   0,B  11,B   6,B   7)    -89.4939         0.010000   
    191. D(B   0,B  11,B   6,B   1)    -27.8537         0.010000   
    192. D(B   6,B  11,B   5,B   4)     63.3056         0.010000   
    193. D(B   6,B  11,B   5,B  10)    104.7427         0.010000   
    194. D(B   0,B  11,B   5,B   4)    106.0395         0.010000   
    195. D(B   0,B  11,B   5,B  10)    147.4766         0.010000   
    196. D(B   6,B  11,B   0,B   1)     26.3236         0.010000   
    197. D(B   5,B  11,B   0,B   1)   -106.6944         0.010000   
    198. D(B   5,B  11,B   0,B   6)   -133.0180         0.010000   
    -----------------------------------------------------------------

Number of atoms                         .... 12
Number of degrees of freedom            .... 198


         *************************************************************
         *                GEOMETRY OPTIMIZATION CYCLE   1            *
         *************************************************************
---------------------------------
CARTESIAN COORDINATES (ANGSTROEM)
---------------------------------
  B      2.150774    0.123243    0.889140
  B      0.853994    1.953535    0.906531
  B     -1.130011    1.904900    0.894260
  B     -2.054816    0.004263    0.921581
  B     -1.159936   -1.842169    0.767257
  B      1.139295   -1.811774    0.795706
  B      1.700446    1.010889   -0.838353
  B     -0.041340    2.293046   -0.688566
  B     -2.224406    0.766116   -0.865790
  B     -1.881061   -1.017422   -0.806976
  B      0.317676   -2.265739   -0.896215
  B      2.124148   -0.952463   -0.740115

----------------------------
CARTESIAN COORDINATES (A.U.)
----------------------------
  NO LB      ZA    FRAG     MASS         X           Y           Z
   0 B     5.0000    0    10.810    4.064373    0.232895    1.680231
   1 B     5.0000    0    10.810    1.613816    3.691647    1.713095
   2 B     5.0000    0    10.810   -2.135411    3.599739    1.689907
   3 B     5.0000    0    10.810   -3.883040    0.008057    1.741536
   4 B     5.0000    0    10.810   -2.191962   -3.481194    1.449905
   5 B     5.0000    0    10.810    2.152956   -3.423756    1.503666
   6 B     5.0000    0    10.810    3.213377    1.910304   -1.584258
   7 B     5.0000    0    10.810   -0.078122    4.333228   -1.301201
   8 B     5.0000    0    10.810   -4.203519    1.447750   -1.636106
   9 B     5.0000    0    10.810   -3.554689   -1.922648   -1.524964
  10 B     5.0000    0    10.810    0.600320   -4.281627   -1.693601
  11 B     5.0000    0    10.810    4.014058   -1.799893   -1.398615

--------------------------------
INTERNAL COORDINATES (ANGSTROEM)
--------------------------------
 B      0   0   0     0.000000000000     0.00000000     0.00000000
 B      1   0   0     2.243191959456     0.00000000     0.00000000
 B      2   1   0     1.984639496852   123.90846080     0.00000000
 B      3   2   1     2.113866066922   117.34253493     1.79028500
 B      4   3   2     2.057653284394   127.99508862   353.17516855
 B      1   2   3     2.185430784614   117.07860435     1.79949356
 B      1   2   3     1.993726199232    60.84802677    94.07498807
 B      2   1   3     1.860436648335   114.86367189   289.17788568
 B      4   3   2     1.950353265593    71.03303153   253.94632214
 B      9   4   3     1.817237501059    64.56620353   140.67115483
 B      6   1   2     1.934874657829   116.20968675    71.88992771
 B      1   2   3     1.952516989162   116.62245255    67.63781865

---------------------------
INTERNAL COORDINATES (A.U.)
---------------------------
 B      0   0   0     0.000000000000     0.00000000     0.00000000
 B      1   0   0     4.239018469187     0.00000000     0.00000000
 B      2   1   0     3.750425123614   123.90846080     0.00000000
 B      3   2   1     3.994627950272   117.34253493     1.79028500
 B      4   3   2     3.888401186068   127.99508862   353.17516855
 B      1   2   3     4.129865667561   117.07860435     1.79949356
 B      1   2   3     3.767596502572    60.84802677    94.07498807
 B      2   1   3     3.515715754864   114.86367189   289.17788568
 B      4   3   2     3.685633536370    71.03303153   253.94632214
 B      9   4   3     3.434081197292    64.56620353   140.67115483
 B      6   1   2     3.656383206762   116.20968675    71.88992771
 B      1   2   3     3.689722381345   116.62245255    67.63781865

---------------------
BASIS SET INFORMATION
---------------------
There are 1 groups of distinct atoms

 Group   1 Type B   : 7s4p1d contracted to 3s2p1d pattern {511/31/1}

Atom   0B    basis set group =>   1
Atom   1B    basis set group =>   1
Atom   2B    basis set group =>   1
Atom   3B    basis set group =>   1
Atom   4B    basis set group =>   1
Atom   5B    basis set group =>   1
Atom   6B    basis set group =>   1
Atom   7B    basis set group =>   1
Atom   8B    basis set group =>   1
Atom   9B    basis set group =>   1
Atom  10B    basis set group =>   1
Atom  11B    basis set group =>   1
---------------------------------
AUXILIARY/J BASIS SET INFORMATION
---------------------------------
There are 1 groups of distinct atoms

 Group   1 Type B   : 12s5p4d2f1g contracted to 6s4p3d1f1g pattern {711111/2111/211/2/1}

Atom   0B    basis set group =>   1
Atom   1B    basis set group =>   1
Atom   2B    basis set group =>   1
Atom   3B    basis set group =>   1
Atom   4B    basis set group =>   1
Atom   5B    basis set group =>   1
Atom   6B    basis set group =>   1
Atom   7B    basis set group =>   1
Atom   8B    basis set group =>   1
Atom   9B    basis set group =>   1
Atom  10B    basis set group =>   1
Atom  11B    basis set group =>   1


           ************************************************************
           *        Program running with 8 parallel MPI-processes     *
           *              working on a common directory               *
           ************************************************************
------------------------------------------------------------------------------
                             ORCA STARTUP CALCULATIONS
                           -- RI-GTO INTEGRALS CHOSEN --
------------------------------------------------------------------------------
------------------------------------------------------------------------------
                   ___                                                        
                  /   \      - P O W E R E D   B Y -                         
                 /     \                                                     
                 |  |  |   _    _      __       _____    __    __             
                 |  |  |  | |  | |    /  \     |  _  \  |  |  /  |          
                  \  \/   | |  | |   /    \    | | | |  |  | /  /          
                 / \  \   | |__| |  /  /\  \   | |_| |  |  |/  /          
                |  |  |   |  __  | /  /__\  \  |    /   |      \           
                |  |  |   | |  | | |   __   |  |    \   |  |\   \          
                \     /   | |  | | |  |  |  |  | |\  \  |  | \   \       
                 \___/    |_|  |_| |__|  |__|  |_| \__\ |__|  \__/        
                                                                              
                      - O R C A' S   B I G   F R I E N D -                    
                                      &                                       
                       - I N T E G R A L  F E E D E R -                       
                                                                              
 v1 FN, 2020, v2 2021, v3 2022-2024                                           
------------------------------------------------------------------------------


----------------------
SHARK INTEGRAL PACKAGE
----------------------

Number of atoms                             ...     12
Number of basis functions                   ...    168
Number of shells                            ...     72
Maximum angular momentum                    ...      2
Integral batch strategy                     ... SHARK/LIBINT Hybrid
RI-J (if used) integral strategy            ... SPLIT-RIJ (Revised 2003 algorithm where possible)
Printlevel                                  ...      1
Contraction scheme used                     ... SEGMENTED contraction
Prescreening option                         ... SCHWARTZ
   Thresh                                   ... 2.500e-11
   Tcut                                     ... 2.500e-12
   Tpresel                                  ... 2.500e-12 
Coulomb Range Separation                    ... NOT USED
Exchange Range Separation                   ... NOT USED
Multipole approximations                    ... NOT USED
Finite Nucleus Model                        ... NOT USED
CABS basis                                  ... NOT available
Auxiliary Coulomb fitting basis             ... AVAILABLE
   # of basis functions in Aux-J            ...    588
   # of shells in Aux-J                     ...    180
   Maximum angular momentum in Aux-J        ...      4
Auxiliary J/K fitting basis                 ... NOT available
Auxiliary Correlation fitting basis         ... NOT available
Auxiliary 'external' fitting basis          ... NOT available

Checking pre-screening integrals            ... done (  0.0 sec) Dimension = 72
   => SHARK Basis and OBASIS are compatible. Storing Pre-screening
Shell pair information
Shell pair cut-off parameter TPreSel        ...   2.5e-12
Total number of shell pairs                 ...      2628
Shell pairs after pre-screening             ...      2562
Total number of primitive shell pairs       ...     10596
Primitive shell pairs kept                  ...      7553
          la=0 lb=0:    622 shell pairs
          la=1 lb=0:    864 shell pairs
          la=1 lb=1:    300 shell pairs
          la=2 lb=0:    410 shell pairs
          la=2 lb=1:    288 shell pairs
          la=2 lb=2:     78 shell pairs

Checking whether 4 symmetric matrices of dimension 168 fit in memory
:Max Core in MB      =   2500.00
 MB in use           =      6.83
 MB left             =   2493.17
 MB needed           =      0.43
 Data fit in memory  = YES
Calculating RI/J V-Matrix + Cholesky decomp.... done (  0.0 sec)
Calculating Nuclear repulsion               ... done (  0.0 sec) ENN=    292.028548173290 Eh

Diagonalization of the overlap matrix:
Smallest eigenvalue                        ... 8.958e-04
Time for diagonalization                   ...    0.009 sec
Threshold for overlap eigenvalues          ... 1.000e-07
Number of eigenvalues below threshold      ... 0
Time for construction of square roots      ...    0.003 sec
Total time needed                          ...    0.027 sec

-------------------
DFT GRID GENERATION
-------------------

General Integration Accuracy     IntAcc      ... 4.388
Radial Grid Type                 RadialGrid  ... OptM3 with GC (2021)
Angular Grid (max. ang.)         AngularGrid ... 4 (Lebedev-302)
Angular grid pruning method      GridPruning ... 4 (adaptive)
Weight generation scheme         WeightScheme... mBecke (2022)
Basis function cutoff            BFCut       ... 1.0000e-11
Integration weight cutoff        WCut        ... 1.0000e-14
Partially contracted basis set               ... off
Rotationally invariant grid construction     ... off
Angular grids for H and He will be reduced by one unit

Total number of grid points                  ...    71886
Total number of batches                      ...     1128
Average number of points per batch           ...       63
Average number of grid points per atom       ...     5990
Grids setup in   0.7 sec
Initializing property integral containers    ... done (  0.0 sec)

SHARK setup successfully completed in   0.9 seconds

Maximum memory used throughout the entire STARTUP-calculation: 19.9 MB


           ************************************************************
           *        Program running with 8 parallel MPI-processes     *
           *              working on a common directory               *
           ************************************************************
-------------------------------------------------------------------------------
                                 ORCA GUESS
                   Start orbitals & Density for SCF / CASSCF
-------------------------------------------------------------------------------

------------
SCF SETTINGS
------------
Hamiltonian:
 Density Functional     Method          .... DFT(GTOs)
 Exchange Functional    Exchange        .... B88
   X-Alpha parameter    XAlpha          ....  0.666667
   Becke's b parameter  XBeta           ....  0.004200
 Correlation Functional Correlation     .... P86
 LDA part of GGA corr.  LDAOpt          .... PW91-LDA
 Gradients option       PostSCFGGA      .... off
   NL short-range parameter             ....  4.400000
 RI-approximation to the Coulomb term is turned on
   Number of AuxJ basis functions       .... 588


General Settings:
 Integral files         IntName         .... hex_antiprism_nn2.00_perturb1
 Hartree-Fock type      HFTyp           .... RHF
 Total Charge           Charge          ....    0
 Multiplicity           Mult            ....    1
 Number of Electrons    NEL             ....   60
 Basis Dimension        Dim             ....  168
 Nuclear Repulsion      ENuc            ....    292.0285481733 Eh

Convergence Acceleration:
 AO-DIIS                CNVDIIS         .... on
   Start iteration      DIISMaxIt       ....     0
   Startup error        DIISStart       ....  0.200000
   # of expansion vecs  DIISMaxEq       ....     5
   Bias factor          DIISBfac        ....   1.050
   Max. coefficient     DIISMaxC        ....  10.000
 MO-DIIS                CNVKDIIS        .... off
 Trust-Rad. Augm. Hess. CNVTRAH         .... auto
   Auto Start mean grad. ratio tolernc. ....  1.125000
   Auto Start start iteration           ....    50
   Auto Start num. interpolation iter.  ....    10
   Max. Number of Micro iterations      ....    24
   Max. Number of Macro iterations      .... Maxiter - #DIIS iter
   Number of Davidson start vectors     ....     2
   Converg. threshold    (grad. norm)   ....   1.000e-05
   Grad. Scal. Fac. for Micro threshold ....   0.100
   Minimum threshold for Micro iter.    ....   1.000e-02
   NR start threshold (gradient norm)   ....   1.000e-04
   Initial trust radius                 ....   0.400
   Minimum AH scaling param. (alpha)    ....   1.000
   Maximum AH scaling param. (alpha)    .... 1000.000
   Quad. conv. algorithm                .... NR
   White noise on init. David. guess    .... on
   Maximum white noise                  ....   0.010
   Pseudo random numbers                .... off
   Inactive MOs                         .... canonical
   Orbital update algorithm             .... Taylor
   Preconditioner                       .... Diag
   Full preconditioner red. dimension   ....   250
 SOSCF                 CNVSOSCF           .... on
   Start iteration     SOSCFMaxIt         ....   150
   Startup grad/error  SOSCFStart         ....  0.001000
   Hessian update      SOSCFHessUp        .... L-BFGS
   Autom. constraints  SOSCFAutoConstrain .... off
 Level Shifting         CNVShift        .... on
   Level shift para.    LevelShift      ....    0.2500
   Turn off err/grad.   ShiftErr        ....    0.0000
 Zerner damping         CNVZerner       .... off
 Static damping         CNVDamp         .... on
   Fraction old density DampFac         ....    0.8500
   Max. Damping (<1)    DampMax         ....    0.9800
   Min. Damping (>=0)   DampMin         ....    0.0000
   Turn off err/grad.   DampErr         ....    0.0300

SCF Procedure:
 Maximum # iterations   MaxIter         ....   125
 SCF integral mode      SCFMode         .... Direct
   Integral package                     .... SHARK and LIBINT hybrid scheme
 Reset frequency        DirectResetFreq ....    20
 Integral Threshold     Thresh          ....  2.500e-11 Eh
 Primitive CutOff       TCut            ....  2.500e-12 Eh

Convergence Tolerance:
 Convergence Check Mode ConvCheckMode   .... Total+1el-Energy
 Convergence forced     ConvForced      .... 0
 Energy Change          TolE            ....  1.000e-08 Eh
 1-El. energy change                    ....  1.000e-05 Eh
 Orbital Gradient       TolG            ....  1.000e-05
 Orbital Rotation angle TolX            ....  1.000e-05
 DIIS Error             TolErr          ....  5.000e-07

------------------------------
INITIAL GUESS: MODEL POTENTIAL
------------------------------
Loading Hartree-Fock densities                     ... done
Calculating cut-offs                               ... done
Initializing the effective Hamiltonian             ... done
Setting up the integral package (SHARK)            ... done
Starting the Coulomb interaction                   ... done (   0.0 sec)
Making the grid                                    ... done (   0.1 sec)
Mapping shells                                     ... done
Starting the XC term evaluation                    ... done (   0.0 sec)
  promolecular density results
     # of electrons  =     59.996984523
     EX              =    -45.028689306
     EC              =     -1.890026597
     EX+EC           =    -46.918715902
Transforming the Hamiltonian                       ... done (   0.0 sec)
Diagonalizing the Hamiltonian                      ... done (   0.0 sec)
Back transforming the eigenvectors                 ... done (   0.0 sec)
Now organizing SCF variables                       ... done
                      ------------------
                      INITIAL GUESS DONE (   0.3 sec)
                      ------------------
             **** ENERGY FILE WAS UPDATED (hex_antiprism_nn2.00_perturb1.en.tmp) ****
Finished Guess after   0.8 sec
Maximum memory used throughout the entire GUESS-calculation: 9.6 MB


           ************************************************************
           *        Program running with 8 parallel MPI-processes     *
           *              working on a common directory               *
           ************************************************************

-------------------------------------------------------------------------------------------
                                      ORCA LEAN-SCF
                              memory conserving SCF solver
-------------------------------------------------------------------------------------------

----------------------------------------D-I-I-S--------------------------------------------
Iteration    Energy (Eh)           Delta-E    RMSDP     MaxDP     DIISErr   Damp  Time(sec)
-------------------------------------------------------------------------------------------
               ***  Starting incremental Fock matrix formation  ***
    1    -296.8394416345646505     0.00e+00  3.92e-03  3.09e-02  6.24e-02  0.850   0.3
Warning: op=0 Small HOMO/LUMO gap (  -0.035) - skipping pre-diagonalization
         Will do a full diagonalization
    2    -296.8776787569181579    -3.82e-02  5.09e-03  2.89e-02  4.55e-02  0.850   0.4
                               ***Turning on AO-DIIS***
    3    -296.9028194658316124    -2.51e-02  2.92e-03  1.80e-02  2.74e-02  0.850   0.3
    4    -296.9158446676103722    -1.30e-02  1.21e-02  5.39e-02  1.80e-02  0.000   0.3
    5    -296.9499033263573438    -3.41e-02  4.36e-03  4.08e-02  1.82e-02  0.000   0.3
    6    -296.9600661707867175    -1.02e-02  2.02e-03  1.48e-02  8.98e-03  0.000   0.4
    7    -296.9623478842316899    -2.28e-03  1.07e-03  7.33e-03  4.19e-03  0.000   0.4
    8    -296.9628874954571529    -5.40e-04  6.53e-04  4.35e-03  2.15e-03  0.000   0.6
                              *** Initializing SOSCF ***
---------------------------------------S-O-S-C-F--------------------------------------
Iteration    Energy (Eh)           Delta-E    RMSDP     MaxDP     MaxGrad    Time(sec)
--------------------------------------------------------------------------------------
    9    -296.9631220547695420    -2.35e-04  4.33e-04  2.58e-03  8.05e-04     0.5
               *** Restarting incremental Fock matrix formation ***
   10    -296.9631889573488479    -6.69e-05  8.32e-04  3.98e-03  8.80e-04     0.7
   11    -296.9631699336226802     1.90e-05  9.41e-04  5.14e-03  1.75e-03     0.8
   12    -296.9633184614061747    -1.49e-04  1.36e-03  8.73e-03  6.77e-04     0.4
   13    -296.9632976259302950     2.08e-05  6.67e-04  3.26e-03  1.04e-03     0.3
   14    -296.9634288984298109    -1.31e-04  1.25e-03  5.87e-03  5.91e-04     0.3
   15    -296.9634330578107893    -4.16e-06  1.22e-03  5.55e-03  8.17e-04     0.3
   16    -296.9635381262792180    -1.05e-04  2.92e-03  1.31e-02  6.10e-04     0.3
   17    -296.9635902409650043    -5.21e-05  3.12e-03  1.54e-02  8.01e-04     0.4
   18    -296.9637058996431733    -1.16e-04  3.70e-03  1.83e-02  7.35e-04     0.4
   19    -296.9637699916319207    -6.41e-05  3.11e-03  1.48e-02  8.44e-04     0.4
   20    -296.9638630010526867    -9.30e-05  3.13e-03  1.51e-02  6.91e-04     0.3
   21    -296.9639094531025876    -4.65e-05  9.77e-04  4.91e-03  7.78e-04     0.5
   22    -296.9639780961986162    -6.86e-05  1.92e-03  9.19e-03  3.13e-04     0.4
   23    -296.9640003455507440    -2.22e-05  1.45e-03  7.00e-03  2.97e-04     0.3
   24    -296.9640166814325539    -1.63e-05  7.16e-04  3.81e-03  2.34e-04     0.3
   25    -296.9640184503549563    -1.77e-06  3.95e-04  1.80e-03  2.59e-04     0.3
   26    -296.9640265010831399    -8.05e-06  8.08e-04  3.98e-03  1.56e-04     0.3
   27    -296.9640245071685740     1.99e-06  7.20e-04  3.57e-03  2.29e-04     0.4
   28    -296.9640297794358048    -5.27e-06  2.59e-04  1.19e-03  1.56e-04     0.5
   29    -296.9640301358930401    -3.56e-07  1.28e-04  5.38e-04  1.45e-04     0.5
               *** Restarting incremental Fock matrix formation ***
   30    -296.9640336936934091    -3.56e-06  2.61e-04  1.08e-03  1.08e-04     0.5
   31    -296.9640355271729959    -1.83e-06  4.21e-04  1.42e-03  1.14e-04     0.4
   32    -296.9640379790324687    -2.45e-06  3.50e-04  1.22e-03  7.95e-05     0.3
   33    -296.9640396077168134    -1.63e-06  2.28e-04  1.00e-03  6.26e-05     0.3
   34    -296.9640402332202029    -6.26e-07  1.16e-04  6.60e-04  3.59e-05     0.4
   35    -296.9640404166677854    -1.83e-07  9.21e-05  5.28e-04  3.10e-05     0.3
   36    -296.9640405322387551    -1.16e-07  2.56e-05  9.68e-05  1.32e-05     0.3
   37    -296.9640405671070766    -3.49e-08  1.62e-05  8.19e-05  8.70e-06     0.3
   38    -296.9640405750760692    -7.97e-09  1.09e-05  4.68e-05  3.90e-06     0.3
                 **** Energy Check signals convergence ****

               *****************************************************
               *                     SUCCESS                       *
               *           SCF CONVERGED AFTER  38 CYCLES          *
               *****************************************************

             **** ENERGY FILE WAS UPDATED (hex_antiprism_nn2.00_perturb1.en.tmp) ****

----------------
TOTAL SCF ENERGY
----------------

Total Energy       :       -296.96404057817290 Eh           -8080.80236 eV

Components:
Nuclear Repulsion  :        292.02854817328978 Eh            7946.50079 eV
Electronic Energy  :       -588.99258875146268 Eh          -16027.30315 eV
One Electron Energy:       -971.75927064757184 Eh          -26442.91409 eV
Two Electron Energy:        382.76668189610916 Eh           10415.61093 eV

Virial components:
Potential Energy   :       -586.96482983440228 Eh          -15972.12503 eV
Kinetic Energy     :        290.00078925622938 Eh            7891.32266 eV
Virial Ratio       :          2.02401114610689

DFT components:
N(Alpha)           :       30.000100863181 electrons
N(Beta)            :       30.000100863181 electrons
N(Total)           :       60.000201726362 electrons
E(X)               :      -45.137929243176 Eh       
E(C)               :       -1.922449444306 Eh       
E(XC)              :      -47.060378687482 Eh       

---------------
SCF CONVERGENCE
---------------

  Last Energy change         ...    7.9690e-09  Tolerance :   1.0000e-08
  Last MAX-Density change    ...    4.6798e-05  Tolerance :   1.0000e-07
  Last RMS-Density change    ...    1.0858e-05  Tolerance :   5.0000e-09
  Last DIIS Error            ...    8.0466e-04  Tolerance :   5.0000e-07
  Last Orbital Gradient      ...    3.8971e-06  Tolerance :   1.0000e-05
  Last Orbital Rotation      ...    1.4965e-04  Tolerance :   1.0000e-05


----------------
ORBITAL ENERGIES
----------------

  NO   OCC          E(Eh)            E(eV) 
   0   2.0000      -6.662845      -181.3052 
   1   2.0000      -6.657250      -181.1530 
   2   2.0000      -6.654799      -181.0863 
   3   2.0000      -6.653341      -181.0466 
   4   2.0000      -6.652757      -181.0307 
   5   2.0000      -6.649554      -180.9436 
   6   2.0000      -6.648589      -180.9173 
   7   2.0000      -6.648208      -180.9069 
   8   2.0000      -6.647638      -180.8914 
   9   2.0000      -6.643044      -180.7664 
  10   2.0000      -6.632455      -180.4783 
  11   2.0000      -6.630436      -180.4233 
  12   2.0000      -0.585643       -15.9362 
  13   2.0000      -0.552559       -15.0359 
  14   2.0000      -0.544354       -14.8126 
  15   2.0000      -0.476567       -12.9681 
  16   2.0000      -0.442297       -12.0355 
  17   2.0000      -0.389954       -10.6112 
  18   2.0000      -0.363019        -9.8782 
  19   2.0000      -0.356216        -9.6931 
  20   2.0000      -0.339809        -9.2467 
  21   2.0000      -0.333036        -9.0624 
  22   2.0000      -0.289652        -7.8818 
  23   2.0000      -0.282150        -7.6777 
  24   2.0000      -0.262414        -7.1406 
  25   2.0000      -0.246299        -6.7021 
  26   2.0000      -0.237626        -6.4661 
  27   2.0000      -0.231916        -6.3107 
  28   2.0000      -0.215702        -5.8696 
  29   2.0000      -0.214134        -5.8269 
  30   0.0000      -0.218019        -5.9326 
  31   0.0000      -0.194296        -5.2871 
  32   0.0000      -0.185221        -5.0401 
  33   0.0000      -0.176820        -4.8115 
  34   0.0000      -0.172490        -4.6937 
  35   0.0000      -0.156783        -4.2663 
  36   0.0000      -0.141480        -3.8499 
  37   0.0000      -0.128457        -3.4955 
  38   0.0000      -0.119075        -3.2402 
  39   0.0000      -0.109945        -2.9918 
  40   0.0000      -0.082553        -2.2464 
*Only the first 10 virtual orbitals were printed.

                    ********************************
                    * MULLIKEN POPULATION ANALYSIS *
                    ********************************

-----------------------
MULLIKEN ATOMIC CHARGES
-----------------------
   0 B :    0.003709
   1 B :    0.000973
   2 B :   -0.018478
   3 B :   -0.000623
   4 B :    0.016094
   5 B :   -0.021527
   6 B :   -0.048159
   7 B :    0.030951
   8 B :   -0.003848
   9 B :    0.018415
  10 B :   -0.013719
  11 B :    0.036211
Sum of atomic charges:    0.0000000

--------------------------------
MULLIKEN REDUCED ORBITAL CHARGES
--------------------------------
  0 B s       :     3.384838  s :     3.384838
      pz      :     0.561388  p :     1.584622
      px      :     0.468400
      py      :     0.554835
      dz2     :     0.009303  d :     0.026830
      dxz     :     0.004736
      dyz     :     0.004331
      dx2y2   :     0.003762
      dxy     :     0.004697

  1 B s       :     3.252653  s :     3.252653
      pz      :     0.553385  p :     1.715855
      px      :     0.588910
      py      :     0.573561
      dz2     :     0.008714  d :     0.030519
      dxz     :     0.007488
      dyz     :     0.004996
      dx2y2   :     0.004322
      dxy     :     0.004999

  2 B s       :     3.304224  s :     3.304224
      pz      :     0.571533  p :     1.687459
      px      :     0.581773
      py      :     0.534154
      dz2     :     0.006723  d :     0.026795
      dxz     :     0.006349
      dyz     :     0.003516
      dx2y2   :     0.005068
      dxy     :     0.005139

  3 B s       :     3.304988  s :     3.304988
      pz      :     0.589194  p :     1.667530
      px      :     0.527534
      py      :     0.550802
      dz2     :     0.009102  d :     0.028105
      dxz     :     0.005346
      dyz     :     0.005580
      dx2y2   :     0.004598
      dxy     :     0.003480

  4 B s       :     3.326477  s :     3.326477
      pz      :     0.619016  p :     1.632291
      px      :     0.552151
      py      :     0.461124
      dz2     :     0.006942  d :     0.025137
      dxz     :     0.005086
      dyz     :     0.004488
      dx2y2   :     0.005155
      dxy     :     0.003467

  5 B s       :     3.326765  s :     3.326765
      pz      :     0.535036  p :     1.667244
      px      :     0.562309
      py      :     0.569898
      dz2     :     0.008387  d :     0.027518
      dxz     :     0.006004
      dyz     :     0.005019
      dx2y2   :     0.004425
      dxy     :     0.003683

  6 B s       :     3.320833  s :     3.320833
      pz      :     0.624454  p :     1.701125
      px      :     0.485907
      py      :     0.590763
      dz2     :     0.008273  d :     0.026201
      dxz     :     0.004255
      dyz     :     0.005053
      dx2y2   :     0.003708
      dxy     :     0.004912

  7 B s       :     3.352204  s :     3.352204
      pz      :     0.456566  p :     1.589710
      px      :     0.549132
      py      :     0.584013
      dz2     :     0.008662  d :     0.027135
      dxz     :     0.005634
      dyz     :     0.005232
      dx2y2   :     0.003290
      dxy     :     0.004317

  8 B s       :     3.355694  s :     3.355694
      pz      :     0.610079  p :     1.622551
      px      :     0.450146
      py      :     0.562325
      dz2     :     0.006918  d :     0.025603
      dxz     :     0.003602
      dyz     :     0.007281
      dx2y2   :     0.003394
      dxy     :     0.004407

  9 B s       :     3.205979  s :     3.205979
      pz      :     0.599552  p :     1.745642
      px      :     0.483518
      py      :     0.662572
      dz2     :     0.007586  d :     0.029964
      dxz     :     0.004290
      dyz     :     0.009590
      dx2y2   :     0.003665
      dxy     :     0.004834

 10 B s       :     3.683994  s :     3.683994
      pz      :     0.447483  p :     1.304241
      px      :     0.463694
      py      :     0.393064
      dz2     :     0.008291  d :     0.025484
      dxz     :     0.004551
      dyz     :     0.004061
      dx2y2   :     0.004113
      dxy     :     0.004468

 11 B s       :     3.192946  s :     3.192946
      pz      :     0.545507  p :     1.741020
      px      :     0.579396
      py      :     0.616117
      dz2     :     0.007650  d :     0.029823
      dxz     :     0.004543
      dyz     :     0.007607
      dx2y2   :     0.004644
      dxy     :     0.005379



                     *******************************
                     * LOEWDIN POPULATION ANALYSIS *
                     *******************************

----------------------
LOEWDIN ATOMIC CHARGES
----------------------
   0 B :   -0.026191
   1 B :   -0.009304
   2 B :    0.027129
   3 B :   -0.036331
   4 B :    0.005898
   5 B :    0.009089
   6 B :    0.037473
   7 B :    0.001937
   8 B :    0.013736
   9 B :   -0.009167
  10 B :    0.017843
  11 B :   -0.032112

-------------------------------
LOEWDIN REDUCED ORBITAL CHARGES
-------------------------------
  0 B s       :     3.027837  s :     3.027837
      pz      :     0.742141  p :     1.939649
      px      :     0.535677
      py      :     0.661831
      dz2     :     0.021542  d :     0.058705
      dxz     :     0.007379
      dyz     :     0.011286
      dx2y2   :     0.007243
      dxy     :     0.011255

  1 B s       :     2.923616  s :     2.923616
      pz      :     0.717163  p :     2.017904
      px      :     0.695197
      py      :     0.605544
      dz2     :     0.020506  d :     0.067783
      dxz     :     0.017109
      dyz     :     0.008844
      dx2y2   :     0.011579
      dxy     :     0.009744

  2 B s       :     2.966163  s :     2.966163
      pz      :     0.687866  p :     1.946680
      px      :     0.682593
      py      :     0.576222
      dz2     :     0.015223  d :     0.060029
      dxz     :     0.014705
      dyz     :     0.005635
      dx2y2   :     0.014264
      dxy     :     0.010203

  3 B s       :     2.974002  s :     2.974002
      pz      :     0.742309  p :     1.995882
      px      :     0.564935
      py      :     0.688638
      dz2     :     0.024526  d :     0.066447
      dxz     :     0.007386
      dyz     :     0.013665
      dx2y2   :     0.010799
      dxy     :     0.010071

  4 B s       :     3.008923  s :     3.008923
      pz      :     0.763206  p :     1.927647
      px      :     0.635085
      py      :     0.529357
      dz2     :     0.015632  d :     0.057531
      dxz     :     0.012008
      dyz     :     0.010255
      dx2y2   :     0.011634
      dxy     :     0.008002

  5 B s       :     2.995924  s :     2.995924
      pz      :     0.697317  p :     1.934962
      px      :     0.649684
      py      :     0.587961
      dz2     :     0.019035  d :     0.060025
      dxz     :     0.014432
      dyz     :     0.009488
      dx2y2   :     0.009312
      dxy     :     0.007757

  6 B s       :     2.977477  s :     2.977477
      pz      :     0.751771  p :     1.929416
      px      :     0.513257
      py      :     0.664388
      dz2     :     0.018455  d :     0.055634
      dxz     :     0.006929
      dyz     :     0.010503
      dx2y2   :     0.009367
      dxy     :     0.010380

  7 B s       :     3.018269  s :     3.018269
      pz      :     0.629070  p :     1.919594
      px      :     0.669822
      py      :     0.620702
      dz2     :     0.020581  d :     0.060200
      dxz     :     0.015512
      dyz     :     0.008964
      dx2y2   :     0.005368
      dxy     :     0.009775

  8 B s       :     3.006039  s :     3.006039
      pz      :     0.744982  p :     1.924321
      px      :     0.491813
      py      :     0.687526
      dz2     :     0.016774  d :     0.055903
      dxz     :     0.005528
      dyz     :     0.015460
      dx2y2   :     0.009679
      dxy     :     0.008463

  9 B s       :     2.918632  s :     2.918632
      pz      :     0.727213  p :     2.020112
      px      :     0.512365
      py      :     0.780533
      dz2     :     0.019632  d :     0.070423
      dxz     :     0.008287
      dyz     :     0.022509
      dx2y2   :     0.011230
      dxy     :     0.008765

 10 B s       :     3.256541  s :     3.256541
      pz      :     0.653108  p :     1.675834
      px      :     0.560855
      py      :     0.461870
      dz2     :     0.016675  d :     0.049782
      dxz     :     0.009986
      dyz     :     0.006903
      dx2y2   :     0.007139
      dxy     :     0.009081

 11 B s       :     2.913100  s :     2.913100
      pz      :     0.693360  p :     2.049359
      px      :     0.631390
      py      :     0.724609
      dz2     :     0.017905  d :     0.069653
      dxz     :     0.009560
      dyz     :     0.019226
      dx2y2   :     0.011203
      dxy     :     0.011759



                      *****************************
                      * MAYER POPULATION ANALYSIS *
                      *****************************

  NA   - Mulliken gross atomic population
  ZA   - Total nuclear charge
  QA   - Mulliken gross atomic charge
  VA   - Mayer's total valence
  BVA  - Mayer's bonded valence
  FA   - Mayer's free valence

  ATOM       NA         ZA         QA         VA         BVA        FA
  0 B      4.9963     5.0000     0.0037     3.0243     3.0243     0.0000
  1 B      4.9990     5.0000     0.0010     3.2774     3.2774    -0.0000
  2 B      5.0185     5.0000    -0.0185     3.2828     3.2828    -0.0000
  3 B      5.0006     5.0000    -0.0006     3.1031     3.1031    -0.0000
  4 B      4.9839     5.0000     0.0161     3.1802     3.1802    -0.0000
  5 B      5.0215     5.0000    -0.0215     3.1849     3.1849    -0.0000
  6 B      5.0482     5.0000    -0.0482     3.2418     3.2418     0.0000
  7 B      4.9690     5.0000     0.0310     3.0491     3.0491     0.0000
  8 B      5.0038     5.0000    -0.0038     3.2023     3.2023     0.0000
  9 B      4.9816     5.0000     0.0184     3.2764     3.2764     0.0000
 10 B      5.0137     5.0000    -0.0137     2.4571     2.4571     0.0000
 11 B      4.9638     5.0000     0.0362     3.2916     3.2916     0.0000

  Mayer bond orders larger than 0.100000
B(  0-B ,  1-B ) :   0.6913 B(  0-B ,  5-B ) :   0.7041 B(  0-B ,  6-B ) :   0.5094 
B(  0-B ,  7-B ) :   0.1401 B(  0-B , 10-B ) :   0.2235 B(  0-B , 11-B ) :   0.5852 
B(  1-B ,  2-B ) :   0.8180 B(  1-B ,  6-B ) :   0.5672 B(  1-B ,  7-B ) :   0.7284 
B(  1-B , 11-B ) :   0.1432 B(  2-B ,  3-B ) :   0.6915 B(  2-B ,  6-B ) :   0.1313 
B(  2-B ,  7-B ) :   0.7181 B(  2-B ,  8-B ) :   0.5254 B(  2-B ,  9-B ) :   0.1565 
B(  3-B ,  4-B ) :   0.8115 B(  3-B ,  8-B ) :   0.6069 B(  3-B ,  9-B ) :   0.5168 
B(  3-B , 10-B ) :   0.1554 B(  4-B ,  5-B ) :   0.5568 B(  4-B ,  8-B ) :   0.2641 
B(  4-B ,  9-B ) :   0.8896 B(  4-B , 10-B ) :   0.3635 B(  4-B , 11-B ) :   0.1099 
B(  5-B ,  6-B ) :   0.2268 B(  5-B ,  9-B ) :   0.1083 B(  5-B , 10-B ) :   0.5540 
B(  5-B , 11-B ) :   0.7418 B(  6-B ,  7-B ) :   0.6807 B(  6-B , 11-B ) :   0.9264 
B(  7-B ,  8-B ) :   0.3527 B(  8-B ,  9-B ) :   1.1187 B(  9-B , 10-B ) :   0.2980 
B( 10-B , 11-B ) :   0.5163 

-------
TIMINGS
-------

Total SCF time: 0 days 0 hours 0 min 15 sec 

Total time                  ....      15.670 sec
Sum of individual times     ....      15.189 sec  ( 96.9%)

SCF preparation             ....       0.465 sec  (  3.0%)
Fock matrix formation       ....      12.024 sec  ( 76.7%)
  Startup                   ....       0.056 sec  (  0.5% of F)
  Split-RI-J                ....       4.117 sec  ( 34.2% of F)
  XC integration            ....       7.385 sec  ( 61.4% of F)
    XC Preparation          ....       0.000 sec  (  0.0% of XC)
    Basis function eval.    ....       1.701 sec  ( 23.0% of XC)
    Density eval.           ....       1.095 sec  ( 14.8% of XC)
    XC-Functional eval.     ....       0.221 sec  (  3.0% of XC)
    XC-Potential eval.      ....       1.302 sec  ( 17.6% of XC)
Diagonalization             ....       0.000 sec  (  0.0%)
Density matrix formation    ....       0.539 sec  (  3.4%)
Total Energy calculation    ....       0.187 sec  (  1.2%)
Population analysis         ....       0.035 sec  (  0.2%)
Orbital Transformation      ....       0.053 sec  (  0.3%)
Orbital Orthonormalization  ....       0.000 sec  (  0.0%)
DIIS solution               ....       0.539 sec  (  3.4%)
SOSCF solution              ....       1.348 sec  (  8.6%)
Finished LeanSCF after  15.7 sec

Maximum memory used throughout the entire LEANSCF-calculation: 10.1 MB


-------------------------------------------------------------------------------
                          DFT DISPERSION CORRECTION                            
                                                                               
                              DFTD3 V3.1  Rev 1                                
                          USING Becke-Johnson damping                          
-------------------------------------------------------------------------------
The BP86 functional is recognized
Active option DFTDOPT                   ...         4   

molecular C6(AA) [au] = 7902.380115 


            DFT-D V3
 parameters
 s6 scaling factor         :     1.0000 
 a1 scaling factor         :     0.3946 
 s8 scaling factor         :     3.2822 
 a2 scaling factor         :     4.8516 
 ad hoc parameters k1-k3   :    16.0000     1.3333    -4.0000 

 Edisp/kcal,au: -32.353692132950  -0.051558884796 
 E6   /kcal   :  -9.422518802 
 E8   /kcal   : -22.931173331 
 % E8         :  70.876526972 

-------------------------   ----------------
Dispersion correction           -0.051558885
-------------------------   ----------------


-------------------------   --------------------
FINAL SINGLE POINT ENERGY      -297.015599462969
-------------------------   --------------------



           ************************************************************
           *        Program running with 8 parallel MPI-processes     *
           *              working on a common directory               *
           ************************************************************
------------------------------------------------------------------------------
                         ORCA SCF GRADIENT CALCULATION
------------------------------------------------------------------------------

Nuc. rep. gradient        (SHARK) ... done (  0.0 sec)
HCore & Overlap gradient  (SHARK) ... done (  0.1 sec)
Split-RIJ-J gradient      (SHARK) ... done (  0.3 sec)
XC gradient                       ... done (  0.9 sec)
Dispersion correction             ... done (  0.0 sec)

-------------------
DISPERSION GRADIENT
-------------------

   1   B   :   -0.000225218   -0.000725173   -0.002592044
   2   B   :   -0.000388823    0.000186865   -0.001359322
   3   B   :    0.000383129   -0.000766311   -0.001145258
   4   B   :    0.001533899   -0.003079098   -0.006387056
   5   B   :   -0.001629662    0.004190173   -0.004413085
   6   B   :    0.000095889    0.000622509   -0.003236446
   7   B   :    0.000636189   -0.000516756    0.002244558
   8   B   :    0.000494353    0.000240919    0.001533597
   9   B   :   -0.000350228   -0.002333546    0.002599783
  10   B   :    0.000112914    0.001525344    0.007315497
  11   B   :    0.000490525    0.000170687    0.002821591
  12   B   :   -0.001152967    0.000484387    0.002618185

Difference to translation invariance:
           :    0.0000000000    0.0000000000    0.0000000000

Difference to rotation invariance:
           :   -0.0000000000    0.0000000000    0.0000000000

Norm of the Dispersion gradient    ...    0.0144138802
RMS gradient                       ...    0.0024023134
MAX gradient                       ...    0.0073154972

------------------
CARTESIAN GRADIENT
------------------

   1   B   :    0.060333590    0.010666785    0.034245664
   2   B   :    0.020130135    0.049433588    0.057488112
   3   B   :   -0.037164558    0.057293955    0.055654704
   4   B   :   -0.045821804    0.001174445    0.035338200
   5   B   :   -0.001671495   -0.066481915    0.052268092
   6   B   :   -0.002289342   -0.062881506    0.050565999
   7   B   :    0.039560022    0.033691085   -0.042432502
   8   B   :   -0.017627310    0.052465530   -0.055939939
   9   B   :   -0.047391502    0.044240645   -0.045018087
  10   B   :   -0.021454755   -0.037627552   -0.059079302
  11   B   :   -0.007969800   -0.039051888   -0.023830887
  12   B   :    0.061366818   -0.042923172   -0.059260054

Difference to translation invariance:
           :    0.0000000000    0.0000000000   -0.0000000000

Difference to rotation invariance:
           :   -0.0006560476    0.0003003221   -0.0005869911

Norm of the Cartesian gradient     ...    0.2634927595
RMS gradient                       ...    0.0439154599
MAX gradient                       ...    0.0664819147

-------
TIMINGS
-------

Total SCF gradient time     ....        1.343 sec

Densities                   ....       0.001 sec  (  0.0%)
One electron gradient       ....       0.056 sec  (  4.2%)
RI-J Coulomb gradient       ....       0.332 sec  ( 24.7%)
XC gradient                 ....       0.902 sec  ( 67.2%)

Maximum memory used throughout the entire SCFGRAD-calculation: 29.6 MB
------------------------------------------------------------------------------
                         ORCA GEOMETRY RELAXATION STEP
------------------------------------------------------------------------------

Reading the OPT-File                    .... done
Getting information on internals        .... done
Copying old internal coords+grads       .... done
Making the new internal coordinates     .... (2022 redundants) done
Validating the new internal coordinates .... (2022 redundants) done
Calculating the B-matrix                .... done
Calculating the G,G- and P matrices     .... done
Transforming gradient to internals      .... done
Projecting the internal gradient        .... done
Number of atoms                         ....  12
Number of internal coordinates          .... 198
Current Energy                          ....  -297.015599463 Eh
Current gradient norm                   ....     0.263492760 Eh/bohr
Maximum allowed component of the step   ....  0.300
Current trust radius                    ....  0.300
Evaluating the initial hessian          ....  (Almloef) done
Projecting the Hessian                  .... done
Forming the augmented Hessian           .... done
Diagonalizing the augmented Hessian     .... done
Last element of RFO vector              ....  0.763601077
Lowest eigenvalues of augmented Hessian:
 -0.190570940  0.017763542  0.020830697  0.023757664  0.026086331
Length of the computed step             ....  0.845583291
Warning: the length of the step is outside the trust region - taking restricted step instead
The input lambda is                     ....     0.016708
   iter:   5  x=   -0.035551  g=  361.617407 f(x)=     9.809958
   iter:  10  x=   -0.525652  g=    1.051956 f(x)=     0.151282
   iter:  15  x=   -0.675038  g=    0.238561 f(x)=     0.000000
The output lambda is                    ....    -0.675038 (16 iterations)
The final length of the internal step   ....  0.300000000
Converting the step to Cartesian space:
 Initial RMS(Int)=    0.0213200716
Transforming coordinates:
 Iter   0:  RMS(Cart)=    0.0547765733 RMS(Int)=    0.0213119181
done
Storing new coordinates                 .... done

                                .--------------------.
          ----------------------|Geometry convergence|-------------------------
          Item                value                   Tolerance       Converged
          ---------------------------------------------------------------------
          RMS gradient        0.0161314583            0.0001000000      NO
          MAX gradient        0.0893642612            0.0003000000      NO
          RMS step            0.0213200716            0.0020000000      NO
          MAX step            0.1182201335            0.0040000000      NO
          -------------------------------------------------------------------------
          ........................................................
          Max(Bonds)      0.0626      Max(Angles)    2.07
          Max(Dihed)        1.71      Max(Improp)    0.00
          ---------------------------------------------------------------------

The optimization has not yet converged - more geometry cycles are needed


    ---------------------------------------------------------------------------
                         Redundant Internal Coordinates
                            (Angstroem and degrees)

        Definition                    Value    dE/dq     Step     New-Value
    ----------------------------------------------------------------------------
     1. B(B   1,B   0)                2.2432  0.040812 -0.0307    2.2125   
     2. B(B   2,B   1)                1.9846  0.050738 -0.0346    1.9500   
     3. B(B   3,B   2)                2.1139  0.056945 -0.0402    2.0737   
     4. B(B   4,B   3)                2.0577  0.060786 -0.0416    2.0161   
     5. B(B   5,B   4)                2.2996  0.033434 -0.0246    2.2750   
     6. B(B   6,B   1)                2.1563  0.033623 -0.0246    2.1317   
     7. B(B   6,B   0)                1.9937  0.021260 -0.0151    1.9787   
     8. B(B   7,B   6)                2.1680  0.051432 -0.0365    2.1315   
     9. B(B   7,B   2)                1.9599  0.031768 -0.0222    1.9377   
    10. B(B   7,B   1)                1.8604  0.033626 -0.0227    1.8378   
    11. B(B   8,B   3)                1.9504  0.030318 -0.0206    1.9298   
    12. B(B   8,B   7)                2.6700  0.039293 -0.0294    2.6406   
    13. B(B   8,B   2)                2.3648  0.030558 -0.0232    2.3416   
    14. B(B   9,B   3)                2.0154  0.033019 -0.0225    1.9929   
    15. B(B   9,B   8)                1.8172  0.057964 -0.0369    1.7803   
    16. B(B   9,B   4)                1.9179  0.035849 -0.0252    1.8927   
    17. B(B  10,B   9)                2.5300  0.024186 -0.0187    2.5113   
    18. B(B  10,B   5)                1.9349  0.032875 -0.0224    1.9124   
    19. B(B  10,B   4)                2.2649  0.009087 -0.0074    2.2575   
    20. B(B  11,B   6)                2.0110  0.065148 -0.0447    1.9663   
    21. B(B  11,B   5)                2.0167  0.089364 -0.0626    1.9541   
    22. B(B  11,B   0)                1.9525  0.048767 -0.0335    1.9190   
    23. A(B   6,B   0,B  11)           61.26  0.009319   -0.68     60.58   
    24. A(B   1,B   0,B  11)          116.62  0.006186   -0.43    116.19   
    25. A(B   1,B   0,B   6)           60.85  0.000194   -0.01     60.84   
    26. A(B   0,B   1,B   7)          114.86  0.001345   -0.08    114.79   
    27. A(B   6,B   1,B   7)           64.84  0.004934   -0.38     64.46   
    28. A(B   2,B   1,B   6)          112.13  0.001298   -0.13    112.00   
    29. A(B   2,B   1,B   7)           61.19 -0.003818    0.26     61.45   
    30. A(B   0,B   1,B   2)          123.91  0.002090   -0.18    123.73   
    31. A(B   0,B   1,B   6)           53.85 -0.003422    0.30     54.15   
    32. A(B   1,B   2,B   7)           56.28 -0.001667    0.14     56.42   
    33. A(B   3,B   2,B   8)           51.26 -0.001195    0.14     51.40   
    34. A(B   3,B   2,B   7)          115.56 -0.000493    0.04    115.61   
    35. A(B   1,B   2,B   8)          118.62  0.000877   -0.07    118.56   
    36. A(B   7,B   2,B   8)           75.60  0.000466   -0.06     75.55   
    37. A(B   1,B   2,B   3)          117.34  0.003103   -0.26    117.08   
    38. A(B   4,B   3,B   9)           56.17 -0.002587    0.17     56.34   
    39. A(B   8,B   3,B   9)           54.52  0.008681   -0.56     53.96   
[...]
      pz      :     0.754839  p :     2.217115
      px      :     0.650467
      py      :     0.811808
      dz2     :     0.014555  d :     0.056136
      dxz     :     0.010441
      dyz     :     0.011740
      dx2y2   :     0.010114
      dxy     :     0.009285

  9 B s       :     2.725331  s :     2.725331
      pz      :     0.754349  p :     2.219919
      px      :     0.678375
      py      :     0.787194
      dz2     :     0.014584  d :     0.056223
      dxz     :     0.010681
      dyz     :     0.011565
      dx2y2   :     0.010634
      dxy     :     0.008760

 10 B s       :     2.721437  s :     2.721437
      pz      :     0.754927  p :     2.219233
      px      :     0.868342
      py      :     0.595964
      dz2     :     0.014558  d :     0.056175
      dxz     :     0.012156
      dyz     :     0.010017
      dx2y2   :     0.008382
      dxy     :     0.011061

 11 B s       :     2.728929  s :     2.728929
      pz      :     0.756228  p :     2.217773
      px      :     0.648047
      py      :     0.813498
      dz2     :     0.014539  d :     0.056174
      dxz     :     0.010428
      dyz     :     0.011677
      dx2y2   :     0.010180
      dxy     :     0.009350



                     *******************************
                     * LOEWDIN POPULATION ANALYSIS *
                     *******************************

----------------------
LOEWDIN ATOMIC CHARGES
----------------------
   0 B :   -0.000969
   1 B :    0.000871
   2 B :   -0.000821
   3 B :    0.000434
   4 B :   -0.000590
   5 B :    0.001065
   6 B :   -0.000402
   7 B :    0.000260
   8 B :    0.000037
   9 B :    0.000157
  10 B :   -0.000461
  11 B :    0.000421

-------------------------------
LOEWDIN REDUCED ORBITAL CHARGES
-------------------------------
  0 B s       :     2.674903  s :     2.674903
      pz      :     0.789558  p :     2.183186
      px      :     0.527132
      py      :     0.866497
      dz2     :     0.040602  d :     0.142880
      dxz     :     0.016704
      dyz     :     0.034104
      dx2y2   :     0.021180
      dxy     :     0.030290

  1 B s       :     2.675466  s :     2.675466
      pz      :     0.789580  p :     2.180633
      px      :     0.797600
      py      :     0.593453
      dz2     :     0.040562  d :     0.143031
      dxz     :     0.030692
      dyz     :     0.020196
      dx2y2   :     0.027173
      dxy     :     0.024407

  2 B s       :     2.674876  s :     2.674876
      pz      :     0.791090  p :     2.182965
      px      :     0.764116
      py      :     0.627759
      dz2     :     0.040570  d :     0.142980
      dxz     :     0.028929
      dyz     :     0.021877
      dx2y2   :     0.028987
      dxy     :     0.022617

  3 B s       :     2.675110  s :     2.675110
      pz      :     0.793069  p :     2.181291
      px      :     0.521490
      py      :     0.866732
      dz2     :     0.040568  d :     0.143165
      dxz     :     0.016644
      dyz     :     0.034145
      dx2y2   :     0.021340
      dxy     :     0.030468

  4 B s       :     2.675177  s :     2.675177
      pz      :     0.792744  p :     2.182630
      px      :     0.796297
      py      :     0.593589
      dz2     :     0.040536  d :     0.142783
      dxz     :     0.030437
      dyz     :     0.020213
      dx2y2   :     0.027235
      dxy     :     0.024362

  5 B s       :     2.675608  s :     2.675608
      pz      :     0.790945  p :     2.180345
      px      :     0.765260
      py      :     0.624140
      dz2     :     0.040533  d :     0.142982
      dxz     :     0.028966
      dyz     :     0.021860
      dx2y2   :     0.028951
      dxy     :     0.022673

  6 B s       :     2.675001  s :     2.675001
      pz      :     0.793275  p :     2.182417
      px      :     0.624643
      py      :     0.764500
      dz2     :     0.040561  d :     0.142984
      dxz     :     0.021854
      dyz     :     0.028852
      dx2y2   :     0.029014
      dxy     :     0.022703

  7 B s       :     2.675248  s :     2.675248
      pz      :     0.792092  p :     2.181517
      px      :     0.866667
      py      :     0.522758
      dz2     :     0.040554  d :     0.142975
      dxz     :     0.034099
      dyz     :     0.016658
      dx2y2   :     0.021251
      dxy     :     0.030414

  8 B s       :     2.675302  s :     2.675302
      pz      :     0.790007  p :     2.181780
      px      :     0.595276
      py      :     0.796498
      dz2     :     0.040568  d :     0.142881
      dxz     :     0.020208
      dyz     :     0.030609
      dx2y2   :     0.027182
      dxy     :     0.024314

  9 B s       :     2.675146  s :     2.675146
      pz      :     0.789483  p :     2.181649
      px      :     0.627230
      py      :     0.764937
      dz2     :     0.040596  d :     0.143047
      dxz     :     0.021864
      dyz     :     0.029027
      dx2y2   :     0.028927
      dxy     :     0.022633

 10 B s       :     2.675027  s :     2.675027
      pz      :     0.790207  p :     2.182473
      px      :     0.866610
      py      :     0.525655
      dz2     :     0.040568  d :     0.142962
      dxz     :     0.034136
      dyz     :     0.016684
      dx2y2   :     0.021227
      dxy     :     0.030347

 11 B s       :     2.675424  s :     2.675424
      pz      :     0.791937  p :     2.181192
      px      :     0.591603
      py      :     0.797652
      dz2     :     0.040524  d :     0.142963
      dxz     :     0.020220
      dyz     :     0.030553
      dx2y2   :     0.027230
      dxy     :     0.024437



                      *****************************
                      * MAYER POPULATION ANALYSIS *
                      *****************************

  NA   - Mulliken gross atomic population
  ZA   - Total nuclear charge
  QA   - Mulliken gross atomic charge
  VA   - Mayer's total valence
  BVA  - Mayer's bonded valence
  FA   - Mayer's free valence

  ATOM       NA         ZA         QA         VA         BVA        FA
  0 B      4.9939     5.0000     0.0061     4.2206     4.2206    -0.0000
  1 B      5.0060     5.0000    -0.0060     4.2338     4.2338    -0.0000
  2 B      4.9943     5.0000     0.0057     4.2218     4.2218    -0.0000
  3 B      5.0039     5.0000    -0.0039     4.2337     4.2337    -0.0000
  4 B      4.9959     5.0000     0.0041     4.2211     4.2211     0.0000
  5 B      5.0060     5.0000    -0.0060     4.2335     4.2335    -0.0000
  6 B      4.9977     5.0000     0.0023     4.2257     4.2257    -0.0000
  7 B      5.0012     5.0000    -0.0012     4.2290     4.2290    -0.0000
  8 B      5.0000     5.0000     0.0000     4.2260     4.2260    -0.0000
  9 B      5.0015     5.0000    -0.0015     4.2300     4.2300     0.0000
 10 B      4.9968     5.0000     0.0032     4.2247     4.2247    -0.0000
 11 B      5.0029     5.0000    -0.0029     4.2296     4.2296     0.0000

  Mayer bond orders larger than 0.100000
B(  0-B ,  1-B ) :   1.0026 B(  0-B ,  2-B ) :   0.1747 B(  0-B ,  4-B ) :   0.1742 
B(  0-B ,  5-B ) :   1.0031 B(  0-B ,  6-B ) :   0.7542 B(  0-B ,  7-B ) :   0.1194 
B(  0-B , 10-B ) :   0.1189 B(  0-B , 11-B ) :   0.7541 B(  1-B ,  2-B ) :   1.0025 
B(  1-B ,  3-B ) :   0.1821 B(  1-B ,  5-B ) :   0.1816 B(  1-B ,  6-B ) :   0.7539 
B(  1-B ,  7-B ) :   0.7540 B(  1-B ,  8-B ) :   0.1196 B(  1-B , 11-B ) :   0.1198 
B(  2-B ,  3-B ) :   1.0032 B(  2-B ,  4-B ) :   0.1751 B(  2-B ,  6-B ) :   0.1191 
B(  2-B ,  7-B ) :   0.7536 B(  2-B ,  8-B ) :   0.7553 B(  2-B ,  9-B ) :   0.1196 
B(  3-B ,  4-B ) :   1.0023 B(  3-B ,  5-B ) :   0.1814 B(  3-B ,  7-B ) :   0.1194 
B(  3-B ,  8-B ) :   0.7539 B(  3-B ,  9-B ) :   0.7524 B(  3-B , 10-B ) :   0.1193 
B(  4-B ,  5-B ) :   1.0028 B(  4-B ,  8-B ) :   0.1198 B(  4-B ,  9-B ) :   0.7553 
B(  4-B , 10-B ) :   0.7549 B(  4-B , 11-B ) :   0.1193 B(  5-B ,  6-B ) :   0.1196 
B(  5-B ,  9-B ) :   0.1194 B(  5-B , 10-B ) :   0.7530 B(  5-B , 11-B ) :   0.7540 
B(  6-B ,  7-B ) :   1.0023 B(  6-B ,  8-B ) :   0.1770 B(  6-B , 10-B ) :   0.1770 
B(  6-B , 11-B ) :   1.0032 B(  7-B ,  8-B ) :   1.0035 B(  7-B ,  9-B ) :   0.1788 
B(  7-B , 11-B ) :   0.1793 B(  8-B ,  9-B ) :   1.0024 B(  8-B , 10-B ) :   0.1770 
B(  9-B , 10-B ) :   1.0031 B(  9-B , 11-B ) :   0.1798 B( 10-B , 11-B ) :   1.0024 


-------
TIMINGS
-------

Total SCF time: 0 days 0 hours 0 min 4 sec 

Total time                  ....       4.121 sec
Sum of individual times     ....       3.650 sec  ( 88.6%)

SCF preparation             ....       0.508 sec  ( 12.3%)
Fock matrix formation       ....       2.505 sec  ( 60.8%)
  Startup                   ....       0.011 sec  (  0.5% of F)
  Split-RI-J                ....       0.942 sec  ( 37.6% of F)
  XC integration            ....       1.715 sec  ( 68.5% of F)
    XC Preparation          ....       0.000 sec  (  0.0% of XC)
    Basis function eval.    ....       0.422 sec  ( 24.6% of XC)
    Density eval.           ....       0.319 sec  ( 18.6% of XC)
    XC-Functional eval.     ....       0.046 sec  (  2.7% of XC)
    XC-Potential eval.      ....       0.381 sec  ( 22.2% of XC)
Diagonalization             ....       0.000 sec  (  0.0%)
Density matrix formation    ....       0.085 sec  (  2.1%)
Total Energy calculation    ....       0.019 sec  (  0.5%)
Population analysis         ....       0.095 sec  (  2.3%)
Orbital Transformation      ....       0.023 sec  (  0.6%)
Orbital Orthonormalization  ....       0.000 sec  (  0.0%)
DIIS solution               ....       0.104 sec  (  2.5%)
SOSCF solution              ....       0.311 sec  (  7.5%)
Finished LeanSCF after   4.2 sec

Maximum memory used throughout the entire LEANSCF-calculation: 11.2 MB


-------------------------------------------------------------------------------
                          DFT DISPERSION CORRECTION                            
                                                                               
                              DFTD3 V3.1  Rev 1                                
                          USING Becke-Johnson damping                          
-------------------------------------------------------------------------------
The BP86 functional is recognized
Active option DFTDOPT                   ...         4   

molecular C6(AA) [au] = 4067.132995 


            DFT-D V3
 parameters
 s6 scaling factor         :     1.0000 
 a1 scaling factor         :     0.3946 
 s8 scaling factor         :     3.2822 
 a2 scaling factor         :     4.8516 
 ad hoc parameters k1-k3   :    16.0000     1.3333    -4.0000 

 Edisp/kcal,au: -22.785556548320  -0.036311091800 
 E6   /kcal   :  -6.462310177 
 E8   /kcal   : -16.323246371 
 % E8         :  71.638567777 

-------------------------   ----------------
Dispersion correction           -0.036311092
-------------------------   ----------------


-------------------------   --------------------
FINAL SINGLE POINT ENERGY      -297.694618754058
-------------------------   --------------------

                                *** OPTIMIZATION RUN DONE ***



           ************************************************************
           *        Program running with 8 parallel MPI-processes     *
           *              working on a common directory               *
           ************************************************************

------------------------------------------------------------------------------
                              ORCA PROPERTY CALCULATIONS
------------------------------------------------------------------------------

GBWName                                 ... hex_antiprism_nn2.00_perturb1.gbw
Number of atoms                         ...     12
Number of basis functions               ...    168
Max core memory                         ...   2500 MB

Electric properties:
Dipole moment                           ... YES
Quadrupole moment                       ...  NO
Static polarizability (Dipole/Dipole)   ...  NO
Static polarizability (Dipole/Quad.)    ...  NO
Static polarizability (Quad./Quad.)     ...  NO
Static polarizability (Velocity)        ...  NO
Static hyperpolarizability              ...  NO

Atomic electric properties:
Dipole moment                           ...  NO
Quadrupole moment                       ...  NO
Static polarizability                   ...  NO

Choice of electric origin               ... Center of mass
Position of electric origin             ...    -0.032320     0.026208     0.053300

General magnetic properties:
Magnetizability                         ...  NO

EPR properties:
g-Tensor (aka g-matrix)                 ...  NO
Zero-Field splitting spin-orbit         ...  NO
Zero-field splitting spin-spin          ...  NO
Hyperfine couplings                     ...  NO (   0 nuclei)
Quadrupole couplings                    ...  NO (   0 nuclei)
Contact density                         ...  NO (   0 nuclei)

NMR properties:
Chemical shifts                         ...  NO (   0 nuclei)
Spin-rotation constants                 ...  NO (   0 nuclei)
Spin-spin couplings                     ...  NO (   0 nuclei,    0 pairs)

Choice of magnetic origin               ... GIAO
Position of magnetic origin             ...     0.000000     0.000000     0.000000

Properties with geometric perturbations:
SCF Hessian                             ...  NO
IR spectrum                             ...  NO
VCD spectrum                            ...  NO
X-ray spectroscopy properties:
SCF XES/XAS/RIXS spectra                ...  NO

SCF SOC stabilization energy            ...  NO
Diagonal Born-Oppenheimer correction    ...  NO

-------------
DIPOLE MOMENT
-------------

Method             : SCF
Type of density    : Electron Density
Multiplicity       :   1
Irrep              :   0
Energy             :  -297.6583076622580393 Eh
Basis              : AO
                                X                 Y                 Z
Electronic contribution:     -0.000039375       0.000022617      -0.000001383
Nuclear contribution   :     -0.000000000       0.000000000      -0.000000000
                        -----------------------------------------
Total Dipole Moment    :     -0.000039375       0.000022617      -0.000001383
                        -----------------------------------------
Magnitude (a.u.)       :      0.000045429
Magnitude (Debye)      :      0.000115473



--------------------
Rotational spectrum 
--------------------
 
Rotational constants in cm-1:             0.068537             0.068514             0.048308 
Rotational constants in MHz :          2054.698506          2054.010992          1448.231536 

Dipole components along the rotational axes: 
x,y,z [a.u.] :    -0.000017    -0.000042    -0.000001 
x,y,z [Debye]:    -0.000042    -0.000107    -0.000003 

 

Dipole moment calculation done in   0.0 sec 

Maximum memory used throughout the entire PROP-calculation: 8.8 MB

--------------------------------
SUGGESTED CITATIONS FOR THIS RUN
--------------------------------

Below you find a list of papers that are relevant to this ORCA run
We neither can nor want to force you to cite these papers, but we appreciate if you do
You receive ORCA, which is the product of decades of hard work by many enthusiastic individuals, for free
The only thing we kindly ask in return is that you cite our papers,
We deeply appreciate it, if you show your appreciation for ORCA by not just citing the generic ORCA reference.

Please note that relegating all ORCA citations to the supporting information does *not* help us.
SI sections are not indexed - citations you put there will not count into any citation statistics
But we need these citations in order to attract the funding resources that allow us to do what we are doing

Therefore, if you are a happy ORCA user, please consider citing a few of the papers listed below in the main body of your paper

In addition to the list printed below, the program has created the file hex_antiprism_nn2.00_perturb1.bibtex that contains the list in bibtex format
You can import this file easily into all common literature databanks and citation aid programs

It goes without saying that in many instances, there are alternative algorithms to achieve similar
results as the ones you have gotten from ORCA. It is, of course, also the case that in some instances
ORCA just re-implements algorithms worked out by others. We are fully aware of that and we are also
fully appreciative of our colleagues work. Hence this citation list should not be read as indicating
that the listed papers, which are focused on our own work, are the only ones worth citing. It simply
meant to make it easier for users to cite ORCA specific papers. It is not a substitute for doing your
own literature research and citing the relevant literature in a scientifically appropriate manner.

List of essential papers. We consider these as the minimum necessary citations

  1. Neese, F.
     Software update: the ORCA program system, version 6.0
     WIRES Comput. Molec. Sci. 2025 15(1), e70019
     doi.org/10.1002/wcms.70019

List of papers to cite with high priority. The work reported in these papers was absolutely
necessary for this run to complete.
Our perspective: the developers of density functionals and basis sets usually get cited in chemistry papers
Good! But without the algorithms to do something with them, the functionals or basis sets would not do anything.
Hence, in our opinion, the algorithm design and method developments papers are equally worthy of getting cited

  1. Neese, F.
     An improvement of the resolution of the identity approximation for the formation of the Coulomb matrix
     J. Comp. Chem. 2003 24(14), 1740-1747
     doi.org/10.1002/jcc.10318
  2. Grimme, S.; Antony, J.; Ehrlich, S.; Krieg, H.
     A consistent and accurate ab initio parametrization of density functional dispersion correction (DFT-D) for the 94 elements H-Pu
     J. Chem. Phys. 2010 132 , 154104
     doi.org/10.1063/1.3382344
  3. Grimme, S.; Ehrlich, S.; Goerigk, L.
     Effect of the damping function in dispersion corrected density functional theory
     J. Comput. Chem. 2011 32(7), 1456-1465
     doi.org/10.1002/jcc.21759
  4. Neese, F.
     The SHARK Integral Generation and Digestion System
     J. Comp. Chem. 2022 44(3), 381
     doi.org/10.1002/jcc.26942

List of suggested additional citations. These are papers that are important in the 'surrounding' of 
of this run, or papers that preceded the highly important papers. If you like your results we are grateful for a citation.

  1. Neese, F.
     The ORCA program system
     WIRES Comput. Molec. Sci. 2012 2(1), 73-78
     doi.org/10.1002/wcms.81
  2. Neese, F.
     Software update: the ORCA program system, version 4.0
     WIRES Comput. Molec. Sci. 2018 8(1), 1-6
     doi.org/10.1002/wcms.1327
  3. Neese, F.; Wennmohs, F.; Becker, U.; Riplinger, C.
     The ORCA quantum chemistry program package
     J. Chem. Phys. 2020 152(22), 224108
     doi.org/10.1063/5.0004608
  4. Neese, F.
     Software update: The ORCA program system—Version 5.0
     WIRES Comput. Molec. Sci. 2022 12(1), e1606
     doi.org/10.1002/wcms.1606

List of optional additional citations

  1. Neese, F.
     Approximate second-order SCF convergence for spin unrestricted wavefunctions
     Chem. Phys. Lett. 2000 325(1-3), 93-98
     doi.org/10.1016/s0009-2614(00)00662-x

Timings for individual modules:

Sum of individual times          ...      288.119 sec (=   4.802 min)
Startup calculation              ...       42.152 sec (=   0.703 min)  14.6 %
SCF iterations                   ...      191.937 sec (=   3.199 min)  66.6 %
Property calculations            ...        0.685 sec (=   0.011 min)   0.2 %
SCF Gradient evaluation          ...       52.968 sec (=   0.883 min)  18.4 %
Geometry relaxation              ...        0.377 sec (=   0.006 min)   0.1 %
                             ****ORCA TERMINATED NORMALLY****
TOTAL RUN TIME: 0 days 0 hours 5 minutes 5 seconds 782 msec
